# Field minima and maxima
# Time         	field          	min            	location(min)  	max            	location(max)  
5.00000000e-02	p              	-1.87722451e+01	(1.03340804e+00 -4.06193460e-02 2.61053336e-17)	2.21235846e+01	(-1.03340804e+00 4.06193460e-02 0.00000000e+00)
5.00000000e-02	U              	(3.39924414e-01 -4.70845941e-01 1.05776608e-18)	(1.03680492e+00 3.82506484e-01 3.61940249e-17)	(1.69084313e+00 -1.28313880e-02 1.22083259e-17)	(4.62739455e-02 1.17685237e+00 3.30045855e-17)
1.00000000e-01	p              	-9.25190840e+00	(-1.10382177e+00 4.33950669e-02 0.00000000e+00)	8.72762977e+00	(1.03340804e+00 -4.06193460e-02 2.61053336e-17)
1.00000000e-01	U              	(5.97206196e-01 -3.84379653e-01 -4.62182800e-18)	(7.02007805e-01 7.59452234e-01 0.00000000e+00)	(1.75464163e+00 1.25005209e-01 3.36585464e-18)	(1.29896258e-01 -1.09718650e+00 2.46944736e-17)
1.50000000e-01	p              	-1.40018414e+00	(1.21582604e-01 -1.02709283e+00 -2.64491183e-17)	1.07150996e+00	(-1.03340804e+00 4.06193460e-02 0.00000000e+00)
1.50000000e-01	U              	(4.60700399e-01 -3.29545942e-01 -8.16109613e-19)	(7.02007805e-01 7.59452234e-01 0.00000000e+00)	(1.72721683e+00 8.90166392e-03 1.08055745e-18)	(4.33950669e-02 1.10382177e+00 0.00000000e+00)
2.00000000e-01	p              	-1.38402291e+00	(1.21582604e-01 1.02709283e+00 2.64491183e-17)	8.73115740e-01	(-1.03340804e+00 -4.06193460e-02 0.00000000e+00)
2.00000000e-01	U              	(3.75890018e-01 -2.79023444e-01 -8.59423049e-19)	(7.02007805e-01 7.59452234e-01 0.00000000e+00)	(1.70116341e+00 -1.13908522e-01 9.71600558e-19)	(1.38518882e-01 1.16988515e+00 -4.34292794e-17)
2.50000000e-01	p              	-1.33936638e+00	(1.21582604e-01 -1.02709283e+00 -2.64491183e-17)	8.30443643e-01	(-1.03340804e+00 4.06193460e-02 0.00000000e+00)
2.50000000e-01	U              	(3.14855497e-01 -2.36044023e-01 -8.52354858e-19)	(7.02007805e-01 7.59452234e-01 0.00000000e+00)	(1.69205024e+00 -1.10347481e-01 9.32829681e-19)	(1.38518882e-01 1.16988515e+00 -4.34292794e-17)
3.00000000e-01	p              	-1.30028042e+00	(1.21582604e-01 -1.02709283e+00 -2.64491183e-17)	7.86175290e-01	(-1.03340804e+00 -4.06193460e-02 0.00000000e+00)
3.00000000e-01	U              	(2.66643413e-01 -2.00313955e-01 -8.44299915e-19)	(7.02007805e-01 7.59452234e-01 0.00000000e+00)	(1.61653286e+00 2.01966706e-01 9.03669898e-19)	(-1.47461948e-01 1.24528550e+00 0.00000000e+00)
3.50000000e-01	p              	-1.27031562e+00	(1.21582604e-01 1.02709283e+00 2.64491183e-17)	7.49417405e-01	(-1.03340804e+00 -4.06193460e-02 0.00000000e+00)
3.50000000e-01	U              	(2.26826065e-01 -1.70540076e-01 -8.33946868e-19)	(7.02007805e-01 7.59452234e-01 0.00000000e+00)	(1.66710053e+00 -1.01256424e-01 8.97322646e-19)	(1.38518882e-01 1.16988515e+00 -4.34292794e-17)
4.00000000e-01	p              	-1.24626321e+00	(1.21582604e-01 -1.02709283e+00 -2.64491183e-17)	7.20683933e-01	(-1.03340804e+00 4.06193460e-02 0.00000000e+00)
4.00000000e-01	U              	(1.93325093e-01 -1.45346600e-01 -8.22851550e-19)	(7.02007805e-01 7.59452234e-01 0.00000000e+00)	(1.61969268e+00 2.04357033e-01 8.93738898e-19)	(-1.47461948e-01 1.24528550e+00 0.00000000e+00)
4.50000000e-01	p              	-1.22591300e+00	(1.21582604e-01 -1.02709283e+00 -2.64491183e-17)	6.98417374e-01	(-1.03340804e+00 -4.06193460e-02 0.00000000e+00)
4.50000000e-01	U              	(1.64835337e-01 -1.23619859e-01 -8.12601890e-19)	(7.02007805e-01 7.59452234e-01 0.00000000e+00)	(1.61959097e+00 2.06567950e-01 8.86326688e-19)	(-1.47461948e-01 1.24528550e+00 0.00000000e+00)
5.00000000e-01	p              	-1.20842049e+00	(1.21582604e-01 -1.02709283e+00 -2.64491183e-17)	6.80985264e-01	(-1.03340804e+00 -4.06193460e-02 0.00000000e+00)
5.00000000e-01	U              	(1.40385108e-01 -1.04582152e-01 -8.02790810e-19)	(7.02007805e-01 7.59452234e-01 0.00000000e+00)	(1.61834083e+00 2.09465112e-01 8.76815042e-19)	(-1.47461948e-01 1.24528550e+00 0.00000000e+00)
5.50000000e-01	p              	-1.19295188e+00	(1.21582604e-01 -1.02709283e+00 -2.64491183e-17)	6.67166278e-01	(-1.03340804e+00 4.06193460e-02 0.00000000e+00)
5.50000000e-01	U              	(1.19222057e-01 -8.77146007e-02 -7.92777689e-19)	(7.02007805e-01 7.59452234e-01 0.00000000e+00)	(1.61610142e+00 2.12851284e-01 8.69145305e-19)	(-1.47461948e-01 1.24528550e+00 0.00000000e+00)
6.00000000e-01	p              	-1.17871825e+00	(1.21582604e-01 -1.02709283e+00 -2.64491183e-17)	6.56105847e-01	(-1.03340804e+00 -4.06193460e-02 0.00000000e+00)
6.00000000e-01	U              	(1.00762939e-01 -7.26625862e-02 -7.82190487e-19)	(7.02007805e-01 7.59452234e-01 0.00000000e+00)	(1.61305072e+00 2.16513351e-01 8.62806569e-19)	(-1.47461948e-01 1.24528550e+00 0.00000000e+00)
6.50000000e-01	p              	-1.16543302e+00	(1.21582604e-01 -1.02709283e+00 -2.64491183e-17)	6.47152980e-01	(-1.03340804e+00 -4.06193460e-02 0.00000000e+00)
6.50000000e-01	U              	(8.45513336e-02 -5.91667195e-02 -7.70977978e-19)	(7.02007805e-01 7.59452234e-01 0.00000000e+00)	(1.47386993e+00 2.53501305e-01 9.61936742e-19)	(-2.76149616e-01 1.38772196e+00 0.00000000e+00)
7.00000000e-01	p              	-1.15288163e+00	(1.21582604e-01 -1.02709283e+00 -2.64491183e-17)	6.39833206e-01	(-1.03340804e+00 -4.06193460e-02 0.00000000e+00)
7.00000000e-01	U              	(7.02203287e-02 -4.70183793e-02 -7.59405510e-19)	(7.02007805e-01 7.59452234e-01 0.00000000e+00)	(1.60505659e+00 2.24022507e-01 8.50193953e-19)	(-1.47461948e-01 1.24528550e+00 0.00000000e+00)
7.50000000e-01	p              	-1.14117729e+00	(4.06193460e-02 -1.03340804e+00 0.00000000e+00)	6.33821741e-01	(-1.03340804e+00 4.06193460e-02 0.00000000e+00)
7.50000000e-01	U              	(5.74787293e-02 -3.60483942e-02 -7.47461349e-19)	(7.02007805e-01 7.59452234e-01 0.00000000e+00)	(1.47248980e+00 2.60246968e-01 9.60553138e-19)	(-2.76149616e-01 1.38772196e+00 0.00000000e+00)
8.00000000e-01	p              	-1.13040437e+00	(4.06193460e-02 -1.03340804e+00 0.00000000e+00)	6.28798698e-01	(-1.03340804e+00 -4.06193460e-02 0.00000000e+00)
8.00000000e-01	U              	(4.60922225e-02 -2.61179100e-02 -7.35168395e-19)	(7.02007805e-01 7.59452234e-01 0.00000000e+00)	(1.47140599e+00 2.63556667e-01 9.56909786e-19)	(-2.76149616e-01 1.38772196e+00 0.00000000e+00)
8.50000000e-01	p              	-1.11994448e+00	(4.06193460e-02 -1.03340804e+00 0.00000000e+00)	6.24610549e-01	(-1.03340804e+00 -4.06193460e-02 0.00000000e+00)
8.50000000e-01	U              	(3.58774354e-02 -1.71129668e-02 -7.22351577e-19)	(7.02007805e-01 7.59452234e-01 0.00000000e+00)	(1.47010183e+00 2.66794447e-01 9.54325544e-19)	(-2.76149616e-01 1.38772196e+00 0.00000000e+00)
9.00000000e-01	p              	-1.10983493e+00	(4.06193460e-02 -1.03340804e+00 0.00000000e+00)	6.21084403e-01	(-1.03340804e+00 4.06193460e-02 0.00000000e+00)
9.00000000e-01	U              	(2.66801065e-02 -8.93330704e-03 -7.09197690e-19)	(7.02007805e-01 7.59452234e-01 0.00000000e+00)	(1.46860671e+00 2.69936063e-01 9.51491776e-19)	(-2.76149616e-01 1.38772196e+00 0.00000000e+00)
9.50000000e-01	p              	-1.10006232e+00	(4.06193460e-02 -1.03340804e+00 0.00000000e+00)	6.18097126e-01	(-1.03340804e+00 4.06193460e-02 0.00000000e+00)
9.50000000e-01	U              	(1.83610050e-02 -1.48907561e-03 -6.96070555e-19)	(7.02007805e-01 7.59452234e-01 0.00000000e+00)	(1.46694469e+00 2.72974815e-01 9.48029048e-19)	(-2.76149616e-01 1.38772196e+00 0.00000000e+00)
1.00000000e+00	p              	-1.09064054e+00	(4.06193460e-02 -1.03340804e+00 0.00000000e+00)	6.15538759e-01	(-1.03340804e+00 4.06193460e-02 0.00000000e+00)
1.00000000e+00	U              	(1.07854426e-02 5.31974302e-03 -6.80918170e-19)	(7.02007805e-01 7.59452234e-01 0.00000000e+00)	(1.46514891e+00 2.75917839e-01 9.44076411e-19)	(-2.76149616e-01 1.38772196e+00 0.00000000e+00)
1.05000000e+00	p              	-1.08145817e+00	(4.06193460e-02 -1.03340804e+00 0.00000000e+00)	6.13357977e-01	(-1.03340804e+00 4.06193460e-02 0.00000000e+00)
1.05000000e+00	U              	(3.84288230e-03 1.15795342e-02 -6.64640543e-19)	(7.02007805e-01 7.59452234e-01 0.00000000e+00)	(1.29985597e+00 4.53784658e-01 4.69962415e-19)	(-5.92566600e-01 1.28544556e+00 0.00000000e+00)
1.10000000e+00	p              	-1.07256158e+00	(4.06193460e-02 -1.03340804e+00 0.00000000e+00)	6.11459236e-01	(-1.03340804e+00 4.06193460e-02 0.00000000e+00)
1.10000000e+00	U              	(-2.52349120e-03 1.73305773e-02 -6.48699869e-19)	(7.02007805e-01 7.59452234e-01 0.00000000e+00)	(1.29782535e+00 4.55173819e-01 4.68751071e-19)	(-5.92566600e-01 1.28544556e+00 0.00000000e+00)
1.15000000e+00	p              	-1.06383269e+00	(4.06193460e-02 -1.03340804e+00 0.00000000e+00)	6.09841079e-01	(-1.03340804e+00 4.06193460e-02 0.00000000e+00)
1.15000000e+00	U              	(-8.35892333e-03 2.26089421e-02 -6.33284824e-19)	(7.02007805e-01 7.59452234e-01 0.00000000e+00)	(1.29579403e+00 4.56462821e-01 4.67448939e-19)	(-5.92566600e-01 1.28544556e+00 0.00000000e+00)
1.20000000e+00	p              	-1.05534734e+00	(4.06193460e-02 -1.03340804e+00 0.00000000e+00)	6.08425853e-01	(-1.03340804e+00 4.06193460e-02 0.00000000e+00)
1.20000000e+00	U              	(-1.37077343e-02 2.74648623e-02 -6.18847829e-19)	(7.02007805e-01 7.59452234e-01 0.00000000e+00)	(1.29376991e+00 4.57661312e-01 4.66076788e-19)	(-5.92566600e-01 1.28544556e+00 0.00000000e+00)
1.25000000e+00	p              	-1.04704957e+00	(4.06193460e-02 -1.03340804e+00 0.00000000e+00)	6.07201381e-01	(-1.03340804e+00 4.06193460e-02 0.00000000e+00)
1.25000000e+00	U              	(-1.85149950e-02 3.18035228e-02 -6.01566044e-19)	(7.02007805e-01 7.59452234e-01 0.00000000e+00)	(1.29175915e+00 4.58778050e-01 4.64647152e-19)	(-5.92566600e-01 1.28544556e+00 0.00000000e+00)
1.30000000e+00	p              	-1.03895778e+00	(4.06193460e-02 -1.03340804e+00 0.00000000e+00)	6.06125087e-01	(-1.03340804e+00 4.06193460e-02 0.00000000e+00)
1.30000000e+00	U              	(-2.28465097e-02 3.56888677e-02 -5.85957777e-19)	(7.02007805e-01 7.59452234e-01 0.00000000e+00)	(1.28976612e+00 4.59821091e-01 4.63163620e-19)	(-5.92566600e-01 1.28544556e+00 0.00000000e+00)
1.35000000e+00	p              	-1.03104479e+00	(4.06193460e-02 -1.03340804e+00 0.00000000e+00)	6.05179860e-01	(-1.03340804e+00 4.06193460e-02 0.00000000e+00)
1.35000000e+00	U              	(-2.67619159e-02 3.91742371e-02 -5.70702505e-19)	(7.02007805e-01 7.59452234e-01 0.00000000e+00)	(1.55239361e+00 8.13046063e-02 2.94628799e-19)	(5.23566379e-02 1.33115645e+00 0.00000000e+00)
1.40000000e+00	p              	-1.02334408e+00	(4.06193460e-02 -1.03340804e+00 0.00000000e+00)	6.04339513e-01	(-1.03340804e+00 4.06193460e-02 0.00000000e+00)
1.40000000e+00	U              	(-3.03081361e-02 4.23003928e-02 -5.55741830e-19)	(7.02007805e-01 7.59452234e-01 0.00000000e+00)	(1.54833586e+00 8.49417778e-02 2.91824589e-19)	(5.23566379e-02 1.33115645e+00 0.00000000e+00)
1.45000000e+00	p              	-1.01578183e+00	(4.06193460e-02 -1.03340804e+00 0.00000000e+00)	6.03606999e-01	(-1.03340804e+00 4.06193460e-02 0.00000000e+00)
1.45000000e+00	U              	(-3.35249471e-02 4.51012625e-02 -5.41172918e-19)	(7.02007805e-01 7.59452234e-01 0.00000000e+00)	(1.54427021e+00 8.84551039e-02 2.89044284e-19)	(5.23566379e-02 1.33115645e+00 0.00000000e+00)
1.50000000e+00	p              	-1.00845670e+00	(4.06193460e-02 -1.03340804e+00 0.00000000e+00)	6.02923379e-01	(-1.03340804e+00 4.06193460e-02 0.00000000e+00)
1.50000000e+00	U              	(-3.64388514e-02 4.76007082e-02 -5.26790264e-19)	(7.02007805e-01 7.59452234e-01 0.00000000e+00)	(1.54021052e+00 9.18472479e-02 2.86299017e-19)	(5.23566379e-02 1.33115645e+00 0.00000000e+00)
1.55000000e+00	p              	-1.00120765e+00	(4.06193460e-02 -1.03340804e+00 0.00000000e+00)	6.02339869e-01	(-1.03340804e+00 4.06193460e-02 0.00000000e+00)
1.55000000e+00	U              	(-3.90763351e-02 4.98267008e-02 -5.12838500e-19)	(7.02007805e-01 7.59452234e-01 0.00000000e+00)	(1.53616765e+00 9.51239215e-02 2.83581107e-19)	(5.23566379e-02 1.33115645e+00 0.00000000e+00)
1.60000000e+00	p              	-9.94147461e-01	(4.06193460e-02 -1.03340804e+00 0.00000000e+00)	6.01803535e-01	(-1.03340804e+00 4.06193460e-02 0.00000000e+00)
1.60000000e+00	U              	(-4.14759820e-02 5.18106242e-02 -4.99811549e-19)	(7.02007805e-01 7.59452234e-01 0.00000000e+00)	(1.53215110e+00 9.82875403e-02 2.80919133e-19)	(5.23566379e-02 1.33115645e+00 0.00000000e+00)
1.65000000e+00	p              	-9.87326291e-01	(4.06193460e-02 -1.03340804e+00 0.00000000e+00)	6.01278255e-01	(-1.03340804e+00 4.06193460e-02 0.00000000e+00)
1.65000000e+00	U              	(-4.36415131e-02 5.35542632e-02 -4.86522977e-19)	(7.02007805e-01 7.59452234e-01 0.00000000e+00)	(1.52816952e+00 1.01338389e-01 2.78326392e-19)	(5.23566379e-02 1.33115645e+00 0.00000000e+00)
1.70000000e+00	p              	-9.80525011e-01	(4.06193460e-02 -1.03340804e+00 0.00000000e+00)	6.00865837e-01	(-1.03340804e+00 4.06193460e-02 0.00000000e+00)
1.70000000e+00	U              	(-4.55905828e-02 5.50710991e-02 -4.73625015e-19)	(7.02007805e-01 7.59452234e-01 0.00000000e+00)	(1.52422684e+00 1.04281036e-01 2.75771970e-19)	(5.23566379e-02 1.33115645e+00 0.00000000e+00)
1.75000000e+00	p              	-9.73945939e-01	(4.06193460e-02 -1.03340804e+00 0.00000000e+00)	6.00442210e-01	(-1.03340804e+00 4.06193460e-02 0.00000000e+00)
1.75000000e+00	U              	(-4.73329463e-02 5.63730870e-02 -4.60802133e-19)	(7.02007805e-01 7.59452234e-01 0.00000000e+00)	(1.52032771e+00 1.07119288e-01 2.73273218e-19)	(5.23566379e-02 1.33115645e+00 0.00000000e+00)
1.80000000e+00	p              	-9.67514130e-01	(4.06193460e-02 -1.03340804e+00 0.00000000e+00)	6.00044398e-01	(-1.03340804e+00 4.06193460e-02 0.00000000e+00)
1.80000000e+00	U              	(-4.88844255e-02 5.74797780e-02 -4.48314053e-19)	(7.02007805e-01 7.59452234e-01 0.00000000e+00)	(1.51647478e+00 1.09857879e-01 2.70825955e-19)	(5.23566379e-02 1.33115645e+00 0.00000000e+00)
1.85000000e+00	p              	-9.61230131e-01	(4.06193460e-02 -1.03340804e+00 0.00000000e+00)	5.99668601e-01	(-1.03340804e+00 4.06193460e-02 0.00000000e+00)
1.85000000e+00	U              	(-5.02628381e-02 5.84119589e-02 -4.36191601e-19)	(7.02007805e-01 7.59452234e-01 0.00000000e+00)	(1.51266854e+00 1.12500878e-01 2.68438738e-19)	(5.23566379e-02 1.33115645e+00 0.00000000e+00)
1.90000000e+00	p              	-9.55092589e-01	(4.06193460e-02 -1.03340804e+00 0.00000000e+00)	5.99300524e-01	(-1.03340804e+00 4.06193460e-02 0.00000000e+00)
1.90000000e+00	U              	(-5.14826555e-02 5.91864847e-02 -4.24355551e-19)	(7.02007805e-01 7.59452234e-01 0.00000000e+00)	(1.50891140e+00 1.15052550e-01 2.66105233e-19)	(5.23566379e-02 1.33115645e+00 0.00000000e+00)
1.95000000e+00	p              	-9.49067620e-01	(4.06193460e-02 -1.03340804e+00 0.00000000e+00)	5.98960829e-01	(-1.03340804e+00 4.06193460e-02 0.00000000e+00)
1.95000000e+00	U              	(-5.25599267e-02 5.98214386e-02 -4.12936778e-19)	(7.02007805e-01 7.59452234e-01 0.00000000e+00)	(1.50520445e+00 1.17517333e-01 2.63824468e-19)	(5.23566379e-02 1.33115645e+00 0.00000000e+00)
2.00000000e+00	p              	-9.43125396e-01	(4.06193460e-02 -1.03340804e+00 0.00000000e+00)	5.98658981e-01	(-1.03340804e+00 4.06193460e-02 0.00000000e+00)
2.00000000e+00	U              	(-5.61656752e-02 -1.07174624e-01 -6.86758307e-19)	(1.48871873e+00 1.76335018e-01 0.00000000e+00)	(1.50154816e+00 1.19900539e-01 2.61590000e-19)	(5.23566379e-02 1.33115645e+00 0.00000000e+00)
2.05000000e+00	p              	-9.37350592e-01	(4.06193460e-02 -1.03340804e+00 0.00000000e+00)	5.98349673e-01	(-1.03340804e+00 4.06193460e-02 0.00000000e+00)
2.05000000e+00	U              	(-6.80905545e-02 -1.02205937e-01 -6.81069121e-19)	(1.48871873e+00 1.76335018e-01 0.00000000e+00)	(1.49794073e+00 1.22203069e-01 2.59433021e-19)	(5.23566379e-02 1.33115645e+00 0.00000000e+00)
2.10000000e+00	p              	-9.31716048e-01	(4.06193460e-02 -1.03340804e+00 0.00000000e+00)	5.98031165e-01	(-1.03340804e+00 4.06193460e-02 0.00000000e+00)
2.10000000e+00	U              	(-7.95791644e-02 -9.72385695e-02 -6.70847360e-19)	(1.48871873e+00 1.76335018e-01 0.00000000e+00)	(1.49462069e+00 2.00326625e-01 3.13773745e-19)	(-5.23566379e-02 1.33115645e+00 0.00000000e+00)
2.15000000e+00	p              	-9.26186039e-01	(4.06193460e-02 -1.03340804e+00 0.00000000e+00)	5.97726669e-01	(-1.03340804e+00 4.06193460e-02 0.00000000e+00)
2.15000000e+00	U              	(-9.06775598e-02 -9.22595083e-02 -6.58358371e-19)	(1.48871873e+00 1.76335018e-01 0.00000000e+00)	(1.49153639e+00 2.02053739e-01 3.11589519e-19)	(-5.23566379e-02 1.33115645e+00 0.00000000e+00)
2.20000000e+00	p              	-9.20795386e-01	(4.06193460e-02 -1.03340804e+00 0.00000000e+00)	5.97418397e-01	(-1.03340804e+00 4.06193460e-02 0.00000000e+00)
2.20000000e+00	U              	(-1.01438712e-01 -8.72690005e-02 -6.45503753e-19)	(1.48871873e+00 1.76335018e-01 0.00000000e+00)	(1.48849490e+00 2.03721044e-01 3.09455028e-19)	(-5.23566379e-02 1.33115645e+00 0.00000000e+00)
2.25000000e+00	p              	-9.15723693e-01	(-4.06193460e-02 -1.03340804e+00 -1.51960920e-17)	5.97145612e-01	(-1.03340804e+00 4.06193460e-02 0.00000000e+00)
2.25000000e+00	U              	(-1.11963931e-01 -8.22541342e-02 -6.36429534e-19)	(1.48871873e+00 1.76335018e-01 0.00000000e+00)	(1.48549509e+00 2.05332880e-01 3.07346959e-19)	(-5.23566379e-02 1.33115645e+00 0.00000000e+00)
2.30000000e+00	p              	-9.10890236e-01	(-4.06193460e-02 -1.03340804e+00 -1.51960920e-17)	5.96850642e-01	(-1.03340804e+00 4.06193460e-02 0.00000000e+00)
2.30000000e+00	U              	(-1.22201274e-01 -7.72670745e-02 -6.23527333e-19)	(1.48871873e+00 1.76335018e-01 0.00000000e+00)	(1.48253899e+00 2.06891648e-01 3.05297852e-19)	(-5.23566379e-02 1.33115645e+00 0.00000000e+00)
2.35000000e+00	p              	-9.06176655e-01	(-4.06193460e-02 -1.03340804e+00 -1.51960920e-17)	5.96560833e-01	(-1.03340804e+00 4.06193460e-02 0.00000000e+00)
2.35000000e+00	U              	(-1.32162279e-01 -7.23292218e-02 -6.12672538e-19)	(1.48871873e+00 1.76335018e-01 0.00000000e+00)	(1.47962190e+00 2.08400153e-01 3.03271047e-19)	(-5.23566379e-02 1.33115645e+00 0.00000000e+00)
2.40000000e+00	p              	-9.01528482e-01	(-4.06193460e-02 -1.03340804e+00 -1.51960920e-17)	5.96275411e-01	(-1.03340804e+00 4.06193460e-02 0.00000000e+00)
2.40000000e+00	U              	(-1.41667893e-01 -6.75423569e-02 -5.91961327e-19)	(1.48871873e+00 1.76335018e-01 0.00000000e+00)	(1.45385622e+00 6.36665979e-02 3.25986659e-19)	(1.56737355e-01 1.32348786e+00 0.00000000e+00)
2.45000000e+00	p              	-8.97011641e-01	(-4.06193460e-02 -1.03340804e+00 -1.51960920e-17)	5.95970764e-01	(-1.03340804e+00 4.06193460e-02 0.00000000e+00)
2.45000000e+00	U              	(-1.50749224e-01 -6.28657126e-02 -5.73348757e-19)	(1.48871873e+00 1.76335018e-01 0.00000000e+00)	(1.45017222e+00 6.58390128e-02 3.23305791e-19)	(1.56737355e-01 1.32348786e+00 0.00000000e+00)
2.50000000e+00	p              	-8.92570682e-01	(-4.06193460e-02 -1.03340804e+00 -1.51960920e-17)	5.95672384e-01	(-1.03340804e+00 4.06193460e-02 0.00000000e+00)
2.50000000e+00	U              	(-1.59433845e-01 -5.82486050e-02 -5.53387549e-19)	(1.48871873e+00 1.76335018e-01 0.00000000e+00)	(1.44654140e+00 6.79452420e-02 3.20698268e-19)	(1.56737355e-01 1.32348786e+00 0.00000000e+00)
2.55000000e+00	p              	-8.88190234e-01	(-4.06193460e-02 -1.03340804e+00 -1.51960920e-17)	5.95391410e-01	(-1.03340804e+00 4.06193460e-02 0.00000000e+00)
2.55000000e+00	U              	(-1.67881841e-01 -5.37738556e-02 -5.42334124e-19)	(1.48871873e+00 1.76335018e-01 0.00000000e+00)	(1.44296263e+00 6.99882111e-02 3.18160005e-19)	(1.56737355e-01 1.32348786e+00 0.00000000e+00)
2.60000000e+00	p              	-8.83935667e-01	(-4.06193460e-02 -1.03340804e+00 -1.51960920e-17)	5.95085154e-01	(-1.03340804e+00 4.06193460e-02 0.00000000e+00)
2.60000000e+00	U              	(-1.76047235e-01 -4.93973891e-02 -5.24689362e-19)	(1.48871873e+00 1.76335018e-01 0.00000000e+00)	(1.43943562e+00 7.19698828e-02 3.15691840e-19)	(1.56737355e-01 1.32348786e+00 0.00000000e+00)
2.65000000e+00	p              	-8.79762739e-01	(-4.06193460e-02 -1.03340804e+00 -1.51960920e-17)	5.94777883e-01	(-1.03340804e+00 4.06193460e-02 0.00000000e+00)
2.65000000e+00	U              	(-1.83850590e-01 -4.50481939e-02 -5.02074118e-19)	(1.48871873e+00 1.76335018e-01 0.00000000e+00)	(1.43595954e+00 7.38927052e-02 3.13287641e-19)	(1.56737355e-01 1.32348786e+00 0.00000000e+00)
2.70000000e+00	p              	-8.75586788e-01	(-4.06193460e-02 -1.03340804e+00 -1.51960920e-17)	5.94523970e-01	(-1.03340804e+00 4.06193460e-02 0.00000000e+00)
2.70000000e+00	U              	(-1.91386353e-01 -4.08017286e-02 -4.86026702e-19)	(1.48871873e+00 1.76335018e-01 0.00000000e+00)	(1.43253203e+00 7.57599132e-02 3.10944283e-19)	(1.56737355e-01 1.32348786e+00 0.00000000e+00)
2.75000000e+00	p              	-8.71563380e-01	(-4.06193460e-02 -1.03340804e+00 -1.51960920e-17)	5.94221879e-01	(-1.03340804e+00 4.06193460e-02 0.00000000e+00)
2.75000000e+00	U              	(-1.98645102e-01 -3.66349001e-02 -4.66878817e-19)	(1.48871873e+00 1.76335018e-01 0.00000000e+00)	(1.39470111e+00 3.31913074e-01 7.89070101e-19)	(-2.76149616e-01 1.38772196e+00 0.00000000e+00)
2.80000000e+00	p              	-8.67644512e-01	(-4.06193460e-02 -1.03340804e+00 -1.51960920e-17)	5.93901432e-01	(-1.03340804e+00 4.06193460e-02 0.00000000e+00)
2.80000000e+00	U              	(-2.05609175e-01 -3.25356784e-02 -4.46472029e-19)	(1.48871873e+00 1.76335018e-01 0.00000000e+00)	(1.39300323e+00 3.32753043e-01 7.85735146e-19)	(-2.76149616e-01 1.38772196e+00 0.00000000e+00)
2.85000000e+00	p              	-8.63733980e-01	(-4.06193460e-02 -1.03340804e+00 -1.51960920e-17)	5.93625794e-01	(-1.03340804e+00 4.06193460e-02 0.00000000e+00)
2.85000000e+00	U              	(-2.12317680e-01 -2.84353319e-02 -4.26993942e-19)	(1.48871873e+00 1.76335018e-01 0.00000000e+00)	(1.39132459e+00 3.33571839e-01 7.82422582e-19)	(-2.76149616e-01 1.38772196e+00 0.00000000e+00)
2.90000000e+00	p              	-8.59942847e-01	(-4.06193460e-02 -1.03340804e+00 -1.51960920e-17)	5.93321529e-01	(-1.03340804e+00 4.06193460e-02 0.00000000e+00)
2.90000000e+00	U              	(-2.18761227e-01 -2.45704055e-02 -4.08784476e-19)	(1.48871873e+00 1.76335018e-01 0.00000000e+00)	(1.38966733e+00 3.34369781e-01 7.79222453e-19)	(-2.76149616e-01 1.38772196e+00 0.00000000e+00)
2.95000000e+00	p              	-8.56194603e-01	(-4.06193460e-02 -1.03340804e+00 -1.51960920e-17)	5.93028013e-01	(-1.03340804e+00 4.06193460e-02 0.00000000e+00)
2.95000000e+00	U              	(-2.24973234e-01 -2.08769306e-02 -3.88967351e-19)	(1.48871873e+00 1.76335018e-01 0.00000000e+00)	(1.38803301e+00 3.35148961e-01 7.76151112e-19)	(-2.76149616e-01 1.38772196e+00 0.00000000e+00)
3.00000000e+00	p              	-8.52577047e-01	(-4.06193460e-02 -1.03340804e+00 -1.51960920e-17)	5.92706729e-01	(-1.03340804e+00 4.06193460e-02 0.00000000e+00)
3.00000000e+00	U              	(-2.30975342e-01 -1.72053783e-02 -3.68237240e-19)	(1.48871873e+00 1.76335018e-01 0.00000000e+00)	(1.38642342e+00 3.35921579e-01 7.72908763e-19)	(-2.76149616e-01 1.38772196e+00 0.00000000e+00)
3.05000000e+00	p              	-8.49053747e-01	(-4.06193460e-02 -1.03340804e+00 -1.51960920e-17)	5.92375604e-01	(-1.03340804e+00 4.06193460e-02 0.00000000e+00)
3.05000000e+00	U              	(-2.36679851e-01 -1.36838561e-02 -3.48389835e-19)	(1.48871873e+00 1.76335018e-01 0.00000000e+00)	(1.38481512e+00 3.36654094e-01 7.70211007e-19)	(-2.76149616e-01 1.38772196e+00 0.00000000e+00)
3.10000000e+00	p              	-8.45481694e-01	(-4.06193460e-02 -1.03340804e+00 -1.51960920e-17)	5.92104009e-01	(-1.03340804e+00 4.06193460e-02 0.00000000e+00)
3.10000000e+00	U              	(-2.42049897e-01 -1.03371294e-02 -3.29813808e-19)	(1.48871873e+00 1.76335018e-01 0.00000000e+00)	(1.38322313e+00 3.37360847e-01 7.67096800e-19)	(-2.76149616e-01 1.38772196e+00 0.00000000e+00)
3.15000000e+00	p              	-8.42072590e-01	(-4.06193460e-02 -1.03340804e+00 -1.51960920e-17)	5.91772324e-01	(-1.03340804e+00 4.06193460e-02 0.00000000e+00)
3.15000000e+00	U              	(-2.47106796e-01 -7.10738691e-03 -3.10675679e-19)	(1.48871873e+00 1.76335018e-01 0.00000000e+00)	(1.38165162e+00 3.38048144e-01 7.64091586e-19)	(-2.76149616e-01 1.38772196e+00 0.00000000e+00)
3.20000000e+00	p              	-8.38615453e-01	(-4.06193460e-02 -1.03340804e+00 -1.51960920e-17)	5.91511719e-01	(-1.03340804e+00 4.06193460e-02 0.00000000e+00)
3.20000000e+00	U              	(-2.51842532e-01 -4.00798707e-03 -2.90304612e-19)	(1.48871873e+00 1.76335018e-01 0.00000000e+00)	(1.38009927e+00 3.38719608e-01 7.61147502e-19)	(-2.76149616e-01 1.38772196e+00 0.00000000e+00)
3.25000000e+00	p              	-8.35299028e-01	(-4.06193460e-02 -1.03340804e+00 -1.51960920e-17)	5.91202269e-01	(-1.03340804e+00 4.06193460e-02 0.00000000e+00)
3.25000000e+00	U              	(-2.56303337e-01 -1.02500497e-03 -2.71630292e-19)	(1.48871873e+00 1.76335018e-01 0.00000000e+00)	(1.37856582e+00 3.39376361e-01 7.58298937e-19)	(-2.76149616e-01 1.38772196e+00 0.00000000e+00)
3.30000000e+00	p              	-8.32012406e-01	(-4.06193460e-02 -1.03340804e+00 -1.51960920e-17)	5.90914075e-01	(-1.03340804e+00 4.06193460e-02 0.00000000e+00)
3.30000000e+00	U              	(-2.60539695e-01 1.97346942e-03 -2.52603054e-19)	(1.48871873e+00 1.76335018e-01 0.00000000e+00)	(1.37705061e+00 3.40019147e-01 7.55503174e-19)	(-2.76149616e-01 1.38772196e+00 0.00000000e+00)
3.35000000e+00	p              	-8.28824475e-01	(-4.06193460e-02 -1.03340804e+00 -1.51960920e-17)	5.90601593e-01	(-1.03340804e+00 4.06193460e-02 0.00000000e+00)
3.35000000e+00	U              	(-2.64551847e-01 4.94073503e-03 -2.33537132e-19)	(1.48871873e+00 1.76335018e-01 0.00000000e+00)	(1.37555389e+00 3.40648070e-01 7.52774764e-19)	(-2.76149616e-01 1.38772196e+00 0.00000000e+00)
3.40000000e+00	p              	-8.25696882e-01	(-4.06193460e-02 -1.03340804e+00 -1.51960920e-17)	5.90286541e-01	(-1.03340804e+00 4.06193460e-02 0.00000000e+00)
3.40000000e+00	U              	(-2.68326370e-01 7.87980291e-03 -2.13059322e-19)	(1.48871873e+00 1.76335018e-01 0.00000000e+00)	(1.37407563e+00 3.41263373e-01 7.50097022e-19)	(-2.76149616e-01 1.38772196e+00 0.00000000e+00)
3.45000000e+00	p              	-8.22612060e-01	(-4.06193460e-02 -1.03340804e+00 -1.51960920e-17)	5.89982884e-01	(-1.03340804e+00 4.06193460e-02 0.00000000e+00)
3.45000000e+00	U              	(-8.56451300e-02 -1.37689470e-01 -3.77267236e-19)	(1.85765077e+00 2.20093220e-01 -1.06142564e-17)	(1.37261569e+00 3.41865330e-01 7.47468424e-19)	(-2.76149616e-01 1.38772196e+00 0.00000000e+00)
3.50000000e+00	p              	-8.19608426e-01	(-4.06193460e-02 -1.03340804e+00 -1.51960920e-17)	5.89665017e-01	(-1.03340804e+00 4.06193460e-02 0.00000000e+00)
3.50000000e+00	U              	(-9.41407744e-02 -1.35126187e-01 -3.75307235e-19)	(1.85765077e+00 2.20093220e-01 -1.06142564e-17)	(1.37117422e+00 3.42454090e-01 7.44896087e-19)	(-2.76149616e-01 1.38772196e+00 0.00000000e+00)
3.55000000e+00	p              	-8.16658399e-01	(-4.06193460e-02 -1.03340804e+00 -1.51960920e-17)	5.89345282e-01	(-1.03340804e+00 4.06193460e-02 0.00000000e+00)
3.55000000e+00	U              	(-1.02344587e-01 -1.32533727e-01 -3.70583147e-19)	(1.85765077e+00 2.20093220e-01 -1.06142564e-17)	(1.36975108e+00 3.43030028e-01 7.42367453e-19)	(-2.76149616e-01 1.38772196e+00 0.00000000e+00)
3.60000000e+00	p              	-8.13664807e-01	(-4.06193460e-02 -1.03340804e+00 -1.51960920e-17)	5.89090820e-01	(-1.03340804e+00 4.06193460e-02 0.00000000e+00)
3.60000000e+00	U              	(-1.10398483e-01 -1.29893199e-01 -3.69977812e-19)	(1.85765077e+00 2.20093220e-01 -1.06142564e-17)	(1.36834496e+00 3.43593880e-01 7.39862016e-19)	(-2.76149616e-01 1.38772196e+00 0.00000000e+00)
3.65000000e+00	p              	-8.10758824e-01	(-4.06193460e-02 -1.03340804e+00 -1.51960920e-17)	5.88813865e-01	(-1.03340804e+00 4.06193460e-02 0.00000000e+00)
3.65000000e+00	U              	(-1.18303175e-01 -1.27250400e-01 -3.67940295e-19)	(1.85765077e+00 2.20093220e-01 -1.06142564e-17)	(1.36695594e+00 3.44145783e-01 7.37416435e-19)	(-2.76149616e-01 1.38772196e+00 0.00000000e+00)
3.70000000e+00	p              	-8.07982870e-01	(-4.06193460e-02 -1.03340804e+00 -1.51960920e-17)	5.88486783e-01	(-1.03340804e+00 4.06193460e-02 0.00000000e+00)
3.70000000e+00	U              	(-1.26039025e-01 -1.24608936e-01 -3.65356279e-19)	(1.85765077e+00 2.20093220e-01 -1.06142564e-17)	(1.36558476e+00 3.44685510e-01 7.35037859e-19)	(-2.76149616e-01 1.38772196e+00 0.00000000e+00)
3.75000000e+00	p              	-8.05199882e-01	(-4.06193460e-02 -1.03340804e+00 -1.51960920e-17)	5.88193539e-01	(-1.03340804e+00 4.06193460e-02 0.00000000e+00)
3.75000000e+00	U              	(-1.33598608e-01 -1.21964444e-01 -3.62619482e-19)	(1.85765077e+00 2.20093220e-01 -1.06142564e-17)	(1.38777977e+00 6.93704130e-02 2.69937069e-19)	(3.09901797e-01 1.55718056e+00 0.00000000e+00)
3.80000000e+00	p              	-8.02508795e-01	(-4.06193460e-02 -1.03340804e+00 -1.51960920e-17)	5.87887227e-01	(-1.03340804e+00 4.06193460e-02 0.00000000e+00)
3.80000000e+00	U              	(-1.40979003e-01 -1.19317864e-01 -3.59694505e-19)	(1.85765077e+00 2.20093220e-01 -1.06142564e-17)	(1.38638353e+00 7.09922440e-02 2.68409507e-19)	(3.09901797e-01 1.55718056e+00 0.00000000e+00)
3.85000000e+00	p              	-7.99852028e-01	(-4.06193460e-02 -1.03340804e+00 -1.51960920e-17)	5.87582877e-01	(-1.03340804e+00 4.06193460e-02 0.00000000e+00)
3.85000000e+00	U              	(-1.48179664e-01 -1.16674451e-01 -3.56588452e-19)	(1.85765077e+00 2.20093220e-01 -1.06142564e-17)	(1.38499632e+00 7.25807583e-02 2.66901232e-19)	(3.09901797e-01 1.55718056e+00 0.00000000e+00)
3.90000000e+00	p              	-7.97199114e-01	(-4.06193460e-02 -1.03340804e+00 -1.51960920e-17)	5.87299146e-01	(-1.03340804e+00 4.06193460e-02 0.00000000e+00)
3.90000000e+00	U              	(-1.55184424e-01 -1.14020446e-01 -3.52960948e-19)	(1.85765077e+00 2.20093220e-01 -1.06142564e-17)	(1.38361898e+00 7.41379009e-02 2.65405030e-19)	(3.09901797e-01 1.55718056e+00 0.00000000e+00)