# Forces        
# CofR          : (0.00000000e+00 0.00000000e+00 0.00000000e+00)
# Time          forces(pressure viscous porous)	moments(pressure viscous porous)
0.05            	((7.38731507e+01 -2.71857090e-06 -5.34311981e-20) (8.93951366e+00 2.53908099e-08 -8.45316118e-22) (0.00000000e+00 0.00000000e+00 0.00000000e+00)) ((5.38962610e-20 -3.18153283e-19 5.88532695e-13) (-6.45328551e-19 2.35433216e-21 -1.50787439e-08) (0.00000000e+00 0.00000000e+00 0.00000000e+00))
0.1             	((-3.10126797e+01 8.53071080e-06 3.83701969e-20) (3.73875091e+00 1.82202872e-07 1.58251800e-21) (0.00000000e+00 0.00000000e+00 0.00000000e+00)) ((4.66504728e-20 1.32599385e-19 5.36420734e-13) (-4.46914798e-19 -1.30878011e-21 -9.67914668e-09) (0.00000000e+00 0.00000000e+00 0.00000000e+00))
0.15            	((4.24575707e+00 -5.99738624e-06 6.62067574e-21) (2.64872424e+00 5.32189285e-08 -2.22950741e-22) (0.00000000e+00 0.00000000e+00 0.00000000e+00)) ((2.03654551e-21 -1.82384376e-20 -8.97692294e-16) (-1.93869521e-20 1.98743319e-22 -1.19105464e-08) (0.00000000e+00 0.00000000e+00 0.00000000e+00))
0.2             	((2.29907485e+00 1.95854622e-06 9.68408133e-21) (2.37354750e+00 3.92876872e-08 1.98860379e-22) (0.00000000e+00 0.00000000e+00 0.00000000e+00)) ((1.35315714e-20 -1.00967205e-20 -4.05318140e-15) (-8.07394695e-20 -1.82670210e-22 -6.51663951e-09) (0.00000000e+00 0.00000000e+00 0.00000000e+00))
0.25            	((2.23515754e+00 -5.69982699e-07 9.36487206e-21) (2.22491411e+00 3.20360416e-08 2.84881650e-22) (0.00000000e+00 0.00000000e+00 0.00000000e+00)) ((1.32383242e-20 -9.79687378e-21 1.48121532e-14) (-1.00667359e-19 -2.28427774e-22 -4.88907689e-09) (0.00000000e+00 0.00000000e+00 0.00000000e+00))
0.3             	((2.09715065e+00 8.05621557e-08 9.30026668e-21) (2.07986132e+00 3.08705169e-08 2.72726115e-22) (0.00000000e+00 0.00000000e+00 0.00000000e+00)) ((1.48949512e-20 -9.22349274e-21 -9.66067504e-15) (-1.02674860e-19 -2.03765787e-22 -3.49417703e-09) (0.00000000e+00 0.00000000e+00 0.00000000e+00))
0.35            	((1.98730129e+00 1.07845955e-08 9.23531436e-21) (1.94782057e+00 2.51761756e-08 2.36380128e-22) (0.00000000e+00 0.00000000e+00 0.00000000e+00)) ((1.65851762e-20 -8.77186112e-21 2.69367861e-14) (-9.71481442e-20 -1.69211793e-22 -2.69801377e-09) (0.00000000e+00 0.00000000e+00 0.00000000e+00))
0.4             	((1.89880337e+00 1.02680412e-07 9.17531178e-21) (1.83741342e+00 2.45100633e-08 2.04216050e-22) (0.00000000e+00 0.00000000e+00 0.00000000e+00)) ((1.84004217e-20 -8.41283508e-21 -1.27518981e-14) (-9.13646948e-20 -1.41821952e-22 -2.24545346e-09) (0.00000000e+00 0.00000000e+00 0.00000000e+00))
0.45            	((1.82857042e+00 -1.47724248e-08 9.11540753e-21) (1.74688042e+00 2.24007043e-08 1.79082586e-22) (0.00000000e+00 0.00000000e+00 0.00000000e+00)) ((2.02783016e-20 -8.13237771e-21 7.00492182e-15) (-8.68772643e-20 -1.20779910e-22 -1.92465222e-09) (0.00000000e+00 0.00000000e+00 0.00000000e+00))
0.5             	((1.77212468e+00 2.00475408e-08 9.05575961e-21) (1.67156871e+00 2.10814117e-08 1.58695131e-22) (0.00000000e+00 0.00000000e+00 0.00000000e+00)) ((2.21773326e-20 -7.91095479e-21 -5.17164436e-16) (-8.34553132e-20 -1.03461705e-22 -1.68042964e-09) (0.00000000e+00 0.00000000e+00 0.00000000e+00))
0.55            	((1.72597494e+00 9.08608566e-09 8.99691669e-21) (1.60760552e+00 2.05788080e-08 1.41229816e-22) (0.00000000e+00 0.00000000e+00 0.00000000e+00)) ((2.40698407e-20 -7.73334420e-21 -8.70614345e-16) (-8.07052102e-20 -8.84168994e-23 -1.51845927e-09) (0.00000000e+00 0.00000000e+00 0.00000000e+00))
0.6             	((1.68770774e+00 -2.62183257e-08 8.93922346e-21) (1.55236299e+00 2.01234749e-08 1.25804865e-22) (0.00000000e+00 0.00000000e+00 0.00000000e+00)) ((2.59409017e-20 -7.58904177e-21 -3.65636341e-15) (-7.83970138e-20 -7.50297156e-23 -1.28186191e-09) (0.00000000e+00 0.00000000e+00 0.00000000e+00))
0.65            	((1.65564901e+00 -9.37790133e-08 8.88282319e-21) (1.50406410e+00 1.91025294e-08 1.11998053e-22) (0.00000000e+00 0.00000000e+00 0.00000000e+00)) ((2.77828825e-20 -7.47079742e-21 -1.97293354e-14) (-7.64187396e-20 -6.30078618e-23 -1.07318814e-09) (0.00000000e+00 0.00000000e+00 0.00000000e+00))
0.7             	((1.62857915e+00 -6.50288598e-08 8.82770121e-21) (1.46143334e+00 1.86378409e-08 9.95538706e-23) (0.00000000e+00 0.00000000e+00 0.00000000e+00)) ((2.95922801e-20 -7.37336098e-21 -1.18706043e-14) (-7.47055508e-20 -5.21500971e-23 -8.41765449e-10) (0.00000000e+00 0.00000000e+00 0.00000000e+00))
0.75            	((1.60557490e+00 -7.18058058e-08 8.77389028e-21) (1.42350517e+00 1.86152389e-08 8.82838008e-23) (0.00000000e+00 0.00000000e+00 0.00000000e+00)) ((3.13673645e-20 -7.29277614e-21 -7.24604838e-15) (-7.32128292e-20 -4.22934512e-23 -6.25500221e-10) (0.00000000e+00 0.00000000e+00 0.00000000e+00))
0.8             	((1.58591830e+00 -8.24999690e-08 8.72136155e-21) (1.38952638e+00 1.85921139e-08 7.80275451e-23) (0.00000000e+00 0.00000000e+00 0.00000000e+00)) ((3.31075015e-20 -7.22598242e-21 -2.81632356e-15) (-7.19050523e-20 -3.33027066e-23 -4.18609064e-10) (0.00000000e+00 0.00000000e+00 0.00000000e+00))
0.85            	((1.56904271e+00 -1.10200158e-07 8.67008244e-21) (1.35889945e+00 1.82987482e-08 6.86531235e-23) (0.00000000e+00 0.00000000e+00 0.00000000e+00)) ((3.48126264e-20 -7.17057497e-21 2.25947733e-16) (-7.07534115e-20 -2.50667393e-23 -2.13473857e-10) (0.00000000e+00 0.00000000e+00 0.00000000e+00))
0.9             	((1.55449542e+00 -1.35805677e-07 8.62001180e-21) (1.33114436e+00 1.81231075e-08 6.00512676e-23) (0.00000000e+00 0.00000000e+00 0.00000000e+00)) ((3.64829734e-20 -7.12463958e-21 1.67389973e-15) (-6.97344113e-20 -1.74940746e-23 1.13258569e-11) (0.00000000e+00 0.00000000e+00 0.00000000e+00))
0.95            	((1.54191018e+00 -1.70625246e-07 8.57110386e-21) (1.30587088e+00 1.79519282e-08 5.21308675e-23) (0.00000000e+00 0.00000000e+00 0.00000000e+00)) ((3.81188914e-20 -7.08663528e-21 2.17599376e-15) (-6.88293642e-20 -1.05082810e-23 2.63078989e-10) (0.00000000e+00 0.00000000e+00 0.00000000e+00))
1               	((1.53098796e+00 -2.05027150e-07 8.52331357e-21) (1.28275819e+00 1.79287254e-08 4.48070606e-23) (0.00000000e+00 0.00000000e+00 0.00000000e+00)) ((3.97208317e-20 -7.05530821e-21 2.41310878e-15) (-6.80225435e-20 -4.03676113e-24 5.56027627e-10) (0.00000000e+00 0.00000000e+00 0.00000000e+00))
1.05            	((1.52148174e+00 -2.36088332e-07 8.47659449e-21) (1.26153988e+00 1.80273620e-08 3.80267862e-23) (0.00000000e+00 0.00000000e+00 0.00000000e+00)) ((4.12892237e-20 -7.02962420e-21 2.24245535e-15) (-6.73012807e-20 1.96368114e-24 6.77169917e-10) (0.00000000e+00 0.00000000e+00 0.00000000e+00))
1.1             	((1.51318657e+00 2.61036196e-07 8.43087952e-21) (1.24199252e+00 2.79568232e-08 3.17361696e-23) (0.00000000e+00 0.00000000e+00 0.00000000e+00)) ((4.28244980e-20 -7.00872801e-21 -2.17556008e-15) (-6.66553220e-20 7.53755574e-24 8.76706992e-10) (0.00000000e+00 0.00000000e+00 0.00000000e+00))
1.15            	((1.50593009e+00 -1.03225043e-07 8.38619180e-21) (1.22392706e+00 2.35923862e-08 2.58925243e-23) (0.00000000e+00 0.00000000e+00 0.00000000e+00)) ((4.43270615e-20 -6.99190519e-21 3.66622965e-15) (-6.60753323e-20 1.27207461e-23 8.78369183e-10) (0.00000000e+00 0.00000000e+00 0.00000000e+00))
1.2             	((1.49956709e+00 -1.13679304e-08 8.34242813e-21) (1.20718252e+00 2.12925093e-08 2.04567628e-23) (0.00000000e+00 0.00000000e+00 0.00000000e+00)) ((4.57971844e-20 -6.97854688e-21 2.94924675e-15) (-6.55546981e-20 1.75491288e-23 9.13680714e-10) (0.00000000e+00 0.00000000e+00 0.00000000e+00))
1.25            	((1.49397465e+00 -6.75271838e-09 8.29957908e-21) (1.19162071e+00 2.08492895e-08 1.53915409e-23) (0.00000000e+00 0.00000000e+00 0.00000000e+00)) ((4.72352312e-20 -6.96814940e-21 2.94068155e-15) (-6.50876366e-20 2.20521197e-23 9.38875332e-10) (0.00000000e+00 0.00000000e+00 0.00000000e+00))
1.3             	((1.48904765e+00 -1.40773093e-08 8.25760837e-21) (1.17712225e+00 2.06847252e-08 1.06650684e-23) (0.00000000e+00 0.00000000e+00 0.00000000e+00)) ((4.86414176e-20 -6.96027962e-21 3.07750787e-15) (-6.46674867e-20 2.62572799e-23 9.66416849e-10) (0.00000000e+00 0.00000000e+00 0.00000000e+00))
1.35            	((1.48469611e+00 -1.45517761e-08 8.21648330e-21) (1.16358346e+00 2.05782779e-08 6.25127652e-24) (0.00000000e+00 0.00000000e+00 0.00000000e+00)) ((5.00159690e-20 -6.95456464e-21 2.97852021e-15) (-6.42905556e-20 3.01867282e-23 1.01444864e-09) (0.00000000e+00 0.00000000e+00 0.00000000e+00))
1.4             	((1.48084311e+00 -1.69527955e-08 8.17617282e-21) (1.15091368e+00 2.04829028e-08 2.12621514e-24) (0.00000000e+00 0.00000000e+00 0.00000000e+00)) ((5.13590530e-20 -6.95068827e-21 3.00237266e-15) (-6.39528027e-20 3.38608882e-23 1.06771147e-09) (0.00000000e+00 0.00000000e+00 0.00000000e+00))
1.45            	((1.47742179e+00 -1.85812423e-08 8.13665019e-21) (1.13903340e+00 2.03950907e-08 -1.73176339e-24) (0.00000000e+00 0.00000000e+00 0.00000000e+00)) ((5.26707964e-20 -6.94837621e-21 2.99792743e-15) (-6.36485967e-20 3.72982635e-23 1.12605798e-09) (0.00000000e+00 0.00000000e+00 0.00000000e+00))
1.5             	((1.47437452e+00 -1.97591433e-08 8.09788805e-21) (1.12787247e+00 2.03144124e-08 -5.34200288e-24) (0.00000000e+00 0.00000000e+00 0.00000000e+00)) ((5.39513178e-20 -6.94739083e-21 3.01213048e-15) (-6.33744103e-20 4.05154156e-23 1.18924123e-09) (0.00000000e+00 0.00000000e+00 0.00000000e+00))
1.55            	((1.47165114e+00 -2.23823058e-08 8.05985890e-21) (1.11736878e+00 2.00872184e-08 -8.72246481e-24) (0.00000000e+00 0.00000000e+00 0.00000000e+00)) ((5.52007730e-20 -6.94752538e-21 2.60316942e-15) (-6.31274726e-20 4.35279053e-23 1.25438065e-09) (0.00000000e+00 0.00000000e+00 0.00000000e+00))
1.6             	((1.46920832e+00 -3.07676107e-08 8.02254143e-21) (1.10746707e+00 1.95458194e-08 -1.18895853e-23) (0.00000000e+00 0.00000000e+00 0.00000000e+00)) ((5.64193366e-20 -6.94860340e-21 2.80645732e-15) (-6.29067616e-20 4.63497237e-23 1.31868354e-09) (0.00000000e+00 0.00000000e+00 0.00000000e+00))
1.65            	((1.46700795e+00 -2.42763153e-08 7.98591143e-21) (1.09811807e+00 1.93221266e-08 -1.48567647e-23) (0.00000000e+00 0.00000000e+00 0.00000000e+00)) ((5.76070920e-20 -6.95046933e-21 2.63417760e-15) (-6.27072344e-20 4.89925573e-23 1.33133526e-09) (0.00000000e+00 0.00000000e+00 0.00000000e+00))
1.7             	((1.46501709e+00 -2.27339577e-08 7.94994496e-21) (1.08927767e+00 1.92458714e-08 -1.76371090e-23) (0.00000000e+00 0.00000000e+00 0.00000000e+00)) ((5.87641718e-20 -6.95298750e-21 2.57237807e-15) (-6.25265799e-20 5.14675434e-23 1.34549204e-09) (0.00000000e+00 0.00000000e+00 0.00000000e+00))
1.75            	((1.46320675e+00 -2.17247294e-08 7.91462017e-21) (1.08090626e+00 1.92089029e-08 -2.02427551e-23) (0.00000000e+00 0.00000000e+00 0.00000000e+00)) ((5.98907574e-20 -6.95603962e-21 2.54679090e-15) (-6.23626262e-20 5.37853067e-23 1.37121739e-09) (0.00000000e+00 0.00000000e+00 0.00000000e+00))
1.8             	((1.46155155e+00 -2.09987934e-08 7.87991492e-21) (1.07296812e+00 1.91706658e-08 -2.26847017e-23) (0.00000000e+00 0.00000000e+00 0.00000000e+00)) ((6.09870367e-20 -6.95952146e-21 2.52597422e-15) (-6.22134516e-20 5.59554106e-23 1.40690137e-09) (0.00000000e+00 0.00000000e+00 0.00000000e+00))
1.85            	((1.46002935e+00 -1.89717258e-08 7.84580975e-21) (1.06543100e+00 1.91163586e-08 -2.49732609e-23) (0.00000000e+00 0.00000000e+00 0.00000000e+00)) ((6.20532222e-20 -6.96334403e-21 2.50808489e-15) (-6.20772807e-20 5.79868816e-23 1.45001555e-09) (0.00000000e+00 0.00000000e+00 0.00000000e+00))
1.9             	((1.45862073e+00 -1.83938543e-08 7.81228361e-21) (1.05826572e+00 1.90512590e-08 -2.71175303e-23) (0.00000000e+00 0.00000000e+00 0.00000000e+00)) ((6.30895867e-20 -6.96742780e-21 2.49626708e-15) (-6.19526009e-20 5.98876592e-23 1.49776028e-09) (0.00000000e+00 0.00000000e+00 0.00000000e+00))
1.95            	((1.45730873e+00 -1.63861502e-08 7.77931802e-21) (1.05144575e+00 1.90021156e-08 -2.91262050e-23) (0.00000000e+00 0.00000000e+00 0.00000000e+00)) ((6.40964322e-20 -6.97170489e-21 2.49561656e-15) (-6.18385694e-20 6.16653926e-23 1.54931523e-09) (0.00000000e+00 0.00000000e+00 0.00000000e+00))
2               	((1.45607836e+00 -1.58800227e-08 7.74689369e-21) (1.04494696e+00 1.89252570e-08 -3.10072244e-23) (0.00000000e+00 0.00000000e+00 0.00000000e+00)) ((6.50740815e-20 -6.97611484e-21 2.47653460e-15) (-6.17341465e-20 6.33270990e-23 1.60284187e-09) (0.00000000e+00 0.00000000e+00 0.00000000e+00))
2.05            	((1.45491647e+00 -1.52218502e-08 7.71499304e-21) (1.03874737e+00 1.88267271e-08 -3.27679765e-23) (0.00000000e+00 0.00000000e+00 0.00000000e+00)) ((6.60228891e-20 -6.98060592e-21 2.44541800e-15) (-6.16370720e-20 6.48793122e-23 1.65776462e-09) (0.00000000e+00 0.00000000e+00 0.00000000e+00))
2.1             	((1.45381159e+00 -1.43758340e-08 7.68359748e-21) (1.03282686e+00 1.87144693e-08 -3.44151323e-23) (0.00000000e+00 0.00000000e+00 0.00000000e+00)) ((6.69432740e-20 -6.98513163e-21 2.43902121e-15) (-6.15463799e-20 6.63279466e-23 1.71360123e-09) (0.00000000e+00 0.00000000e+00 0.00000000e+00))
2.15            	((1.45275368e+00 -1.33582237e-08 7.65269092e-21) (1.02716703e+00 1.85926089e-08 -3.59554225e-23) (0.00000000e+00 0.00000000e+00 0.00000000e+00)) ((6.78356723e-20 -6.98965334e-21 2.41310878e-15) (-6.14611705e-20 6.76790434e-23 1.76980029e-09) (0.00000000e+00 0.00000000e+00 0.00000000e+00))
2.2             	((1.45173393e+00 -1.21802572e-08 7.62225726e-21) (1.02175099e+00 1.84621137e-08 -3.73948631e-23) (0.00000000e+00 0.00000000e+00 0.00000000e+00)) ((6.87005542e-20 -6.99413704e-21 2.40389306e-15) (-6.13806352e-20 6.89379957e-23 1.82580946e-09) (0.00000000e+00 0.00000000e+00 0.00000000e+00))
2.25            	((1.45074462e+00 -1.08528126e-08 7.59228095e-21) (1.01656319e+00 1.83226831e-08 -3.87392185e-23) (0.00000000e+00 0.00000000e+00 0.00000000e+00)) ((6.95384408e-20 -6.99855318e-21 2.38275111e-15) (-6.13039941e-20 7.01100014e-23 1.88112087e-09) (0.00000000e+00 0.00000000e+00 0.00000000e+00))
2.3             	((1.44977904e+00 -9.40613879e-09 7.56274732e-21) (1.01158936e+00 1.81738597e-08 -3.99936336e-23) (0.00000000e+00 0.00000000e+00 0.00000000e+00)) ((7.03498514e-20 -7.00287678e-21 2.35412818e-15) (-6.12307310e-20 7.11996929e-23 1.93526820e-09) (0.00000000e+00 0.00000000e+00 0.00000000e+00))
2.35            	((1.44883134e+00 -7.89053402e-09 7.53364231e-21) (1.00681634e+00 1.80152778e-08 -4.11630952e-23) (0.00000000e+00 0.00000000e+00 0.00000000e+00)) ((7.11353341e-20 -7.00708645e-21 2.31834951e-15) (-6.11603458e-20 7.22115889e-23 1.98784302e-09) (0.00000000e+00 0.00000000e+00 0.00000000e+00))
2.4             	((1.44789641e+00 -6.35408077e-09 7.50495232e-21) (1.00223197e+00 1.78467233e-08 -4.22522995e-23) (0.00000000e+00 0.00000000e+00 0.00000000e+00)) ((7.18954542e-20 -7.01116383e-21 2.25860997e-15) (-6.10923851e-20 7.31499573e-23 2.03849603e-09) (0.00000000e+00 0.00000000e+00 0.00000000e+00))
2.45            	((1.44696980e+00 -1.12646715e-08 7.47666395e-21) (9.97825015e-01 1.76949414e-08 -4.32655837e-23) (0.00000000e+00 0.00000000e+00 0.00000000e+00)) ((7.26308122e-20 -7.01509331e-21 2.24321429e-15) (-6.10264658e-20 7.40187381e-23 2.08605092e-09) (0.00000000e+00 0.00000000e+00 0.00000000e+00))
2.5             	((1.44604773e+00 -9.29250874e-09 7.44876593e-21) (9.93585078e-01 1.75215841e-08 -4.42072291e-23) (0.00000000e+00 0.00000000e+00 0.00000000e+00)) ((7.33420086e-20 -7.01886227e-21 2.18531790e-15) (-6.09622313e-20 7.48218637e-23 2.13345184e-09) (0.00000000e+00 0.00000000e+00 0.00000000e+00))
2.55            	((1.44512692e+00 -7.59400099e-09 7.42124632e-21) (9.89502516e-01 1.73386668e-08 -4.50811123e-23) (0.00000000e+00 0.00000000e+00 0.00000000e+00)) ((7.40296570e-20 -7.02246030e-21 2.12546994e-15) (-6.08993833e-20 7.55628702e-23 2.17902260e-09) (0.00000000e+00 0.00000000e+00 0.00000000e+00))
2.6             	((1.44420461e+00 -5.93938243e-09 7.39409423e-21) (9.85568390e-01 1.71447537e-08 -4.58909581e-23) (0.00000000e+00 0.00000000e+00 0.00000000e+00)) ((7.46943809e-20 -7.02587931e-21 2.06995879e-15) (-6.08376916e-20 7.62451756e-23 2.22192090e-09) (0.00000000e+00 0.00000000e+00 0.00000000e+00))
2.65            	((1.44327840e+00 -4.33502900e-09 7.36729938e-21) (9.81774395e-01 1.69392767e-08 -4.66402838e-23) (0.00000000e+00 0.00000000e+00 0.00000000e+00)) ((7.53367971e-20 -7.02911247e-21 2.04176953e-15) (-6.07769524e-20 7.68720112e-23 2.26168991e-09) (0.00000000e+00 0.00000000e+00 0.00000000e+00))
2.7             	((1.44234632e+00 -2.78317366e-09 7.34085197e-21) (9.78112803e-01 1.67225758e-08 -4.73323650e-23) (0.00000000e+00 0.00000000e+00 0.00000000e+00)) ((7.59575284e-20 -7.03215469e-21 1.96695958e-15) (-6.07169854e-20 7.74463876e-23 2.29811707e-09) (0.00000000e+00 0.00000000e+00 0.00000000e+00))
2.75            	((1.44140669e+00 -1.29343520e-09 7.31474256e-21) (9.74576424e-01 1.64952361e-08 -4.79703276e-23) (0.00000000e+00 0.00000000e+00 0.00000000e+00)) ((7.65571941e-20 -7.03500229e-21 1.90884634e-15) (-6.06576575e-20 7.79711837e-23 2.33104411e-09) (0.00000000e+00 0.00000000e+00 0.00000000e+00))
2.8             	((1.44045814e+00 1.22030296e-10 7.28896208e-21) (9.71158558e-01 1.62578733e-08 -4.85571375e-23) (0.00000000e+00 0.00000000e+00 0.00000000e+00)) ((7.71364078e-20 -7.03765264e-21 1.85897304e-15) (-6.05988523e-20 7.84491345e-23 2.36030894e-09) (0.00000000e+00 0.00000000e+00 0.00000000e+00))
2.85            	((1.43949955e+00 1.45113941e-09 7.26350226e-21) (9.67852956e-01 1.60111509e-08 -4.90956628e-23) (0.00000000e+00 0.00000000e+00 0.00000000e+00)) ((7.76957769e-20 -7.04010447e-21 1.79110199e-15) (-6.05404713e-20 7.88828916e-23 2.38572503e-09) (0.00000000e+00 0.00000000e+00 0.00000000e+00))
2.9             	((1.43853006e+00 2.67960640e-09 7.23835522e-21) (9.64653789e-01 1.57557725e-08 -4.95885473e-23) (0.00000000e+00 0.00000000e+00 0.00000000e+00)) ((7.82359074e-20 -7.04235747e-21 1.73494032e-15) (-6.04824409e-20 7.92748965e-23 2.40704890e-09) (0.00000000e+00 0.00000000e+00 0.00000000e+00))
2.95            	((1.43754904e+00 3.79609287e-09 7.21351353e-21) (9.61555610e-01 1.54926495e-08 -5.00383182e-23) (0.00000000e+00 0.00000000e+00 0.00000000e+00)) ((7.87573922e-20 -7.04441222e-21 1.67595972e-15) (-6.04246998e-20 7.96274864e-23 2.42392946e-09) (0.00000000e+00 0.00000000e+00 0.00000000e+00))
3               	((1.43655598e+00 4.78931904e-09 7.18896995e-21) (9.58553324e-01 1.52229944e-08 -5.04473559e-23) (0.00000000e+00 0.00000000e+00 0.00000000e+00)) ((7.92608120e-20 -7.04626973e-21 1.61719596e-15) (-6.03672005e-20 7.99428629e-23 2.43581876e-09) (0.00000000e+00 0.00000000e+00 0.00000000e+00))
3.05            	((1.43555055e+00 5.64866152e-09 7.16471759e-21) (9.55642163e-01 1.49485559e-08 -5.08179425e-23) (0.00000000e+00 0.00000000e+00 0.00000000e+00)) ((7.97467363e-20 -7.04793168e-21 1.52048513e-15) (-6.03099065e-20 8.02231394e-23 2.44183854e-09) (0.00000000e+00 0.00000000e+00 0.00000000e+00))
3.1             	((1.43453298e+00 6.53967963e-09 7.14074945e-21) (9.52817608e-01 1.46533915e-08 -5.11523895e-23) (0.00000000e+00 0.00000000e+00 0.00000000e+00)) ((8.02157310e-20 -7.04940225e-21 1.82015861e-15) (-6.02526854e-20 8.04705524e-23 2.48698630e-09) (0.00000000e+00 0.00000000e+00 0.00000000e+00))
3.15            	((1.43350245e+00 -3.83522030e-07 7.11707610e-21) (9.50075508e-01 6.10162854e-09 -5.14531972e-23) (0.00000000e+00 0.00000000e+00 0.00000000e+00)) ((8.06683437e-20 -7.05067986e-21 7.60394352e-15) (-6.01953874e-20 8.06863885e-23 2.49758893e-09) (0.00000000e+00 0.00000000e+00 0.00000000e+00))
3.2             	((1.43245931e+00 -1.63146433e-08 7.09363864e-21) (9.47411947e-01 1.08041349e-08 -5.17212026e-23) (0.00000000e+00 0.00000000e+00 0.00000000e+00)) ((8.11050768e-20 -7.05177144e-21 4.61956862e-15) (-6.01382363e-20 8.08740169e-23 2.77959560e-09) (0.00000000e+00 0.00000000e+00 0.00000000e+00))
3.25            	((1.43140390e+00 -1.16913832e-07 7.07049497e-21) (9.44823251e-01 1.31922111e-08 -5.19588004e-23) (0.00000000e+00 0.00000000e+00 0.00000000e+00)) ((8.15264819e-20 -7.05267992e-21 5.50796388e-15) (-6.00812377e-20 8.10327087e-23 3.00046433e-09) (0.00000000e+00 0.00000000e+00 0.00000000e+00))
3.3             	((1.43033622e+00 -1.05265088e-07 7.04760814e-21) (9.42305967e-01 1.39934835e-08 -5.21675766e-23) (0.00000000e+00 0.00000000e+00 0.00000000e+00)) ((8.19330525e-20 -7.05340794e-21 5.56954656e-15) (-6.00243481e-20 8.11656970e-23 3.22576163e-09) (0.00000000e+00 0.00000000e+00 0.00000000e+00))
3.35            	((1.42925678e+00 -9.89899709e-08 7.02497796e-21) (9.39856837e-01 1.42596909e-08 -5.23492706e-23) (0.00000000e+00 0.00000000e+00 0.00000000e+00)) ((8.23252863e-20 -7.05396095e-21 5.73391161e-15) (-5.99675965e-20 8.12741286e-23 3.43133037e-09) (0.00000000e+00 0.00000000e+00 0.00000000e+00))
3.4             	((1.42816587e+00 -9.22812550e-08 7.00259985e-21) (9.37472803e-01 1.43368359e-08 -5.25054823e-23) (0.00000000e+00 0.00000000e+00 0.00000000e+00)) ((8.27036614e-20 -7.05434279e-21 5.94706576e-15) (-5.99110051e-20 8.13595139e-23 3.61202328e-09) (0.00000000e+00 0.00000000e+00 0.00000000e+00))
3.45            	((1.42706382e+00 -8.55324771e-08 6.98046934e-21) (9.35150994e-01 1.43228906e-08 -5.26377444e-23) (0.00000000e+00 0.00000000e+00 0.00000000e+00)) ((8.30686430e-20 -7.05455764e-21 6.17908502e-15) (-5.98545799e-20 8.14232521e-23 3.76765662e-09) (0.00000000e+00 0.00000000e+00 0.00000000e+00))
3.5             	((1.42595127e+00 -7.88314273e-08 6.95858169e-21) (9.32888694e-01 1.42571802e-08 -5.27474371e-23) (0.00000000e+00 0.00000000e+00 0.00000000e+00)) ((8.34206833e-20 -7.05461087e-21 6.43755882e-15) (-5.97983272e-20 8.14666345e-23 3.90135629e-09) (0.00000000e+00 0.00000000e+00 0.00000000e+00))
3.55            	((1.42482855e+00 -7.23428992e-08 6.93693275e-21) (9.30683348e-01 1.41497347e-08 -5.28359273e-23) (0.00000000e+00 0.00000000e+00 0.00000000e+00)) ((8.37602179e-20 -7.05450648e-21 6.71923454e-15) (-5.97422529e-20 8.14909165e-23 4.01548241e-09) (0.00000000e+00 0.00000000e+00 0.00000000e+00))
3.6             	((1.42369621e+00 -6.60411119e-08 6.91551830e-21) (9.28532547e-01 1.40086434e-08 -5.29044929e-23) (0.00000000e+00 0.00000000e+00 0.00000000e+00)) ((8.40876727e-20 -7.05424922e-21 7.02454588e-15) (-5.96863649e-20 8.14972840e-23 4.11210242e-09) (0.00000000e+00 0.00000000e+00 0.00000000e+00))
3.65            	((1.42255508e+00 -8.63164243e-08 6.89434575e-21) (9.26433988e-01 1.39777359e-08 -5.29517711e-23) (0.00000000e+00 0.00000000e+00 0.00000000e+00)) ((8.44034495e-20 -7.05384350e-21 -6.50521303e-18) (-5.96306766e-20 8.14871700e-23 4.19913462e-09) (0.00000000e+00 0.00000000e+00 0.00000000e+00))
3.7             	((1.42140502e+00 -7.91699327e-08 6.87338899e-21) (9.24385560e-01 1.40237591e-08 -5.29837797e-23) (0.00000000e+00 0.00000000e+00 0.00000000e+00)) ((8.47079706e-20 -7.05329468e-21 -1.82796486e-16) (-5.95751862e-20 8.14610966e-23 4.28213610e-09) (0.00000000e+00 0.00000000e+00 0.00000000e+00))
3.75            	((1.42024702e+00 -7.37716943e-08 6.85265530e-21) (9.22385240e-01 1.39953340e-08 -5.29993571e-23) (0.00000000e+00 0.00000000e+00 0.00000000e+00)) ((8.50016116e-20 -7.05260756e-21 -5.83951290e-16) (-5.95199134e-20 8.14203079e-23 4.35472232e-09) (0.00000000e+00 0.00000000e+00 0.00000000e+00))
3.8             	((1.41908163e+00 -6.89908461e-08 6.83214096e-21) (9.20431111e-01 1.38894753e-08 -5.29995385e-23) (0.00000000e+00 0.00000000e+00 0.00000000e+00)) ((8.52847474e-20 -7.05178679e-21 -9.77733519e-16) (-5.94648680e-20 8.13657799e-23 4.41593262e-09) (0.00000000e+00 0.00000000e+00 0.00000000e+00))
3.85            	((1.41790941e+00 -6.49247964e-08 6.81184257e-21) (9.18521362e-01 1.37292497e-08 -5.29852806e-23) (0.00000000e+00 0.00000000e+00 0.00000000e+00)) ((8.55577422e-20 -7.05083715e-21 -1.40317445e-15) (-5.94100616e-20 8.12984291e-23 4.46624309e-09) (0.00000000e+00 0.00000000e+00 0.00000000e+00))
3.9             	((1.41673093e+00 -6.15450885e-08 6.79175676e-21) (9.16654277e-01 1.35329004e-08 -5.29575018e-23) (0.00000000e+00 0.00000000e+00 0.00000000e+00)) ((8.58209476e-20 -7.04976331e-21 -1.85875620e-15) (-5.93555056e-20 8.12191202e-23 4.50676523e-09) (0.00000000e+00 0.00000000e+00 0.00000000e+00))
3.95            	((1.41554677e+00 -5.88235180e-08 6.77188025e-21) (9.14828231e-01 1.33111165e-08 -5.29170805e-23) (0.00000000e+00 0.00000000e+00 0.00000000e+00)) ((8.60747030e-20 -7.04856988e-21 -2.35467028e-15) (-5.93012122e-20 8.11286707e-23 4.53878491e-09) (0.00000000e+00 0.00000000e+00 0.00000000e+00))
4               	((1.41435749e+00 -5.67260534e-08 6.75220983e-21) (9.13041686e-01 1.30700857e-08 -5.28648576e-23) (0.00000000e+00 0.00000000e+00 0.00000000e+00)) ((8.63193358e-20 -7.04726136e-21 -2.82629822e-15) (-5.92471919e-20 8.10278604e-23 4.56354472e-09) (0.00000000e+00 0.00000000e+00 0.00000000e+00))
4.05            	((1.41316364e+00 -5.52163128e-08 6.73274241e-21) (9.11293182e-01 1.28137846e-08 -5.28016284e-23) (0.00000000e+00 0.00000000e+00 0.00000000e+00)) ((8.65551662e-20 -7.04584229e-21 -3.34996787e-15) (-5.91934559e-20 8.09174258e-23 4.58216499e-09) (0.00000000e+00 0.00000000e+00 0.00000000e+00))
4.1             	((1.41196577e+00 -5.42496146e-08 6.71347498e-21) (9.09581336e-01 1.25451628e-08 -5.27281450e-23) (0.00000000e+00 0.00000000e+00 0.00000000e+00)) ((8.67825023e-20 -7.04431708e-21 -3.88296166e-15) (-5.91400134e-20 8.07980631e-23 4.59562979e-09) (0.00000000e+00 0.00000000e+00 0.00000000e+00))
4.15            	((1.41076443e+00 -5.37748997e-08 6.69440464e-21) (9.07904833e-01 1.22665845e-08 -5.26451246e-23) (0.00000000e+00 0.00000000e+00 0.00000000e+00)) ((8.70016422e-20 -7.04269005e-21 -4.40945024e-15) (-5.90868750e-20 8.06704359e-23 4.60479486e-09) (0.00000000e+00 0.00000000e+00 0.00000000e+00))
4.2             	((1.40956044e+00 -5.43961313e-07 6.67556305e-21) (9.06262434e-01 1.63077224e-09 -5.25501167e-23) (0.00000000e+00 0.00000000e+00 0.00000000e+00)) ((8.72128641e-20 -7.04096190e-21 -1.36834988e-14) (-5.90340575e-20 8.05345043e-23 4.54956617e-09) (0.00000000e+00 0.00000000e+00 0.00000000e+00))
4.25            	((1.40835340e+00 -9.20365339e-08 6.65684694e-21) (9.04652935e-01 7.31628478e-09 -5.24517645e-23) (0.00000000e+00 0.00000000e+00 0.00000000e+00)) ((8.74164765e-20 -7.03914522e-21 -9.61817431e-15) (-5.89815574e-20 8.03934741e-23 4.80238598e-09) (0.00000000e+00 0.00000000e+00 0.00000000e+00))
4.3             	((1.40714485e+00 -2.19954942e-07 6.63835937e-21) (9.03075224e-01 1.02592987e-08 -5.23430220e-23) (0.00000000e+00 0.00000000e+00 0.00000000e+00)) ((8.76127205e-20 -7.03723799e-21 -1.15899044e-14) (-5.89293970e-20 8.02444914e-23 4.97832220e-09) (0.00000000e+00 0.00000000e+00 0.00000000e+00))
4.35            	((1.40593474e+00 -2.08869753e-07 6.62005016e-21) (9.01528225e-01 1.12867269e-08 -5.22280352e-23) (0.00000000e+00 0.00000000e+00 0.00000000e+00)) ((8.78018675e-20 -7.03524529e-21 -1.24110791e-14) (-5.88775808e-20 8.00899188e-23 5.16341091e-09) (0.00000000e+00 0.00000000e+00 0.00000000e+00))
4.4             	((1.40472368e+00 -2.04509551e-07 6.60192467e-21) (9.00010918e-01 1.16692250e-08 -5.21066709e-23) (0.00000000e+00 0.00000000e+00 0.00000000e+00)) ((8.79841678e-20 -7.03317114e-21 -1.32040646e-14) (-5.88261194e-20 7.99297978e-23 5.33331963e-09) (0.00000000e+00 0.00000000e+00 0.00000000e+00))
4.45            	((1.40351210e+00 -1.99068117e-07 6.58398039e-21) (8.98522330e-01 1.18365537e-08 -5.19794043e-23) (0.00000000e+00 0.00000000e+00 0.00000000e+00)) ((8.81598641e-20 -7.03101916e-21 -1.39562840e-14) (-5.87750212e-20 7.97646910e-23 5.48312310e-09) (0.00000000e+00 0.00000000e+00 0.00000000e+00))
4.5             	((1.40230046e+00 -1.93072223e-07 6.56621489e-21) (8.97061534e-01 1.19164746e-08 -5.18467031e-23) (0.00000000e+00 0.00000000e+00 0.00000000e+00)) ((8.83291910e-20 -7.02879302e-21 -1.46853016e-14) (-5.87242940e-20 7.95950530e-23 5.61282464e-09) (0.00000000e+00 0.00000000e+00 0.00000000e+00))
4.55            	((1.40108918e+00 -1.86521799e-07 6.54862579e-21) (8.95627648e-01 1.19454352e-08 -5.17090209e-23) (0.00000000e+00 0.00000000e+00 0.00000000e+00)) ((8.84923750e-20 -7.02649626e-21 -1.53624943e-14) (-5.86739458e-20 7.94213090e-23 5.72389105e-09) (0.00000000e+00 0.00000000e+00 0.00000000e+00))
4.6             	((1.39987866e+00 -1.79375835e-07 6.53121078e-21) (8.94219829e-01 1.19383393e-08 -5.15667901e-23) (0.00000000e+00 0.00000000e+00 0.00000000e+00)) ((8.86496354e-20 -7.02413235e-21 -1.59980536e-14) (-5.86239840e-20 7.92438576e-23 5.81790411e-09) (0.00000000e+00 0.00000000e+00 0.00000000e+00))
4.65            	((1.39866931e+00 -1.71566698e-07 6.51396760e-21) (8.92837273e-01 1.19042198e-08 -5.14204220e-23) (0.00000000e+00 0.00000000e+00 0.00000000e+00)) ((8.88011831e-20 -7.02170459e-21 -1.65718134e-14) (-5.85744148e-20 7.90630744e-23 5.89622562e-09) (0.00000000e+00 0.00000000e+00 0.00000000e+00))
4.7             	((1.39746150e+00 -1.63030079e-07 6.49689405e-21) (8.91479210e-01 1.18489183e-08 -5.12703089e-23) (0.00000000e+00 0.00000000e+00 0.00000000e+00)) ((8.89472220e-20 -7.01921624e-21 -1.70655590e-14) (-5.85252440e-20 7.88793157e-23 5.95994907e-09) (0.00000000e+00 0.00000000e+00 0.00000000e+00))
4.75            	((1.39625559e+00 -1.53718929e-07 6.47998797e-21) (8.90144907e-01 1.17757993e-08 -5.11168216e-23) (0.00000000e+00 0.00000000e+00 0.00000000e+00)) ((8.90879495e-20 -7.01667042e-21 -1.74840611e-14) (-5.84764770e-20 7.86929156e-23 6.00993634e-09) (0.00000000e+00 0.00000000e+00 0.00000000e+00))
4.8             	((1.39505193e+00 -1.43637897e-07 6.46324724e-21) (8.88833661e-01 1.16858290e-08 -5.09603128e-23) (0.00000000e+00 0.00000000e+00 0.00000000e+00)) ((8.92235555e-20 -7.01407019e-21 -1.77726757e-14) (-5.84281191e-20 7.85041895e-23 6.04682396e-09) (0.00000000e+00 0.00000000e+00 0.00000000e+00))
4.85            	((1.39385089e+00 -1.32624687e-07 6.44666967e-21) (8.87544801e-01 1.15897596e-08 -5.08011213e-23) (0.00000000e+00 0.00000000e+00 0.00000000e+00)) ((8.93542229e-20 -7.01141867e-21 -1.79274998e-14) (-5.83801738e-20 7.83134298e-23 6.07089179e-09) (0.00000000e+00 0.00000000e+00 0.00000000e+00))