# Field minima and maxima
# Time          	field           	min             	location(min)   	max             	location(max)   
0.05            	p               	-2.12244253e+01	(1.03340804e+00 -4.06193460e-02 2.61053336e-17)	2.57275786e+01	(-1.03340804e+00 4.06193460e-02 0.00000000e+00)
0.05            	U               	(2.56477001e-01 -3.56980527e-01 -7.76683833e-19)	(1.13417589e+00 3.19909089e-01 -3.28857625e-17)	(1.56383168e+00 -3.30442947e-02 6.42852886e-18)	(4.62739455e-02 1.17685237e+00 3.30045855e-17)
0.1             	p               	-1.01646741e+01	(-1.03340804e+00 4.06193460e-02 0.00000000e+00)	9.40274185e+00	(1.03340804e+00 -4.06193460e-02 2.61053336e-17)
0.1             	U               	(1.87508521e-01 -2.00894486e-01 -2.29872239e-18)	(7.02007805e-01 7.59452234e-01 0.00000000e+00)	(1.56120533e+00 2.72265905e-02 2.63711975e-18)	(4.62739455e-02 -1.17685237e+00 -3.30045855e-17)
0.15            	p               	-1.32039380e+00	(4.33038181e-01 -9.39341130e-01 1.35777088e-17)	1.89251187e+00	(-1.03340804e+00 4.06193460e-02 0.00000000e+00)
0.15            	U               	(1.03397998e-01 -2.14514274e-01 -4.72318783e-19)	(1.06357317e+00 2.99983060e-01 0.00000000e+00)	(1.57063279e+00 -2.14180074e-02 2.18560605e-19)	(5.23566379e-02 1.33115645e+00 0.00000000e+00)
0.2             	p               	-1.17526784e+00	(2.01798769e-01 1.01443079e+00 1.39798975e-17)	1.12621302e+00	(-1.03340804e+00 -4.06193460e-02 0.00000000e+00)
0.2             	U               	(7.75958484e-02 -1.73783467e-01 -2.57927266e-19)	(1.06357317e+00 2.99983060e-01 0.00000000e+00)	(1.55107114e+00 -1.60898367e-02 2.10466577e-19)	(5.23566379e-02 1.33115645e+00 0.00000000e+00)
0.25            	p               	-1.12665990e+00	(2.80771032e-01 -9.95500333e-01 -1.35833420e-17)	1.07779112e+00	(-1.03340804e+00 4.06193460e-02 0.00000000e+00)
0.25            	U               	(6.54694449e-02 -1.46179421e-01 -2.72481704e-19)	(1.06357317e+00 2.99983060e-01 0.00000000e+00)	(1.48335624e+00 2.61900302e-01 6.43223926e-19)	(-2.76149616e-01 1.38772196e+00 0.00000000e+00)
0.3             	p               	-1.09519426e+00	(2.01798769e-01 -1.01443079e+00 -1.39798975e-17)	1.01773719e+00	(-1.03340804e+00 -4.06193460e-02 0.00000000e+00)
0.3             	U               	(5.72062662e-02 -1.25997315e-01 -2.55192004e-19)	(1.06357317e+00 2.99983060e-01 0.00000000e+00)	(1.52361774e+00 -2.00777803e-03 1.96452823e-19)	(5.55685452e-02 1.41263523e+00 0.00000000e+00)
0.35            	p               	-1.07151146e+00	(2.01798769e-01 1.01443079e+00 1.39798975e-17)	9.72018446e-01	(-1.03340804e+00 -4.06193460e-02 0.00000000e+00)
0.35            	U               	(5.01450183e-02 -1.09969117e-01 -2.36325545e-19)	(1.06357317e+00 2.99983060e-01 0.00000000e+00)	(1.50658919e+00 5.08022493e-03 1.93487021e-19)	(5.55685452e-02 1.41263523e+00 0.00000000e+00)
0.4             	p               	-1.05146254e+00	(2.01798769e-01 1.01443079e+00 1.39798975e-17)	9.35408066e-01	(-1.03340804e+00 -4.06193460e-02 0.00000000e+00)
0.4             	U               	(4.39250897e-02 -9.65540401e-02 -2.19202275e-19)	(1.06357317e+00 2.99983060e-01 0.00000000e+00)	(1.49264421e+00 7.57819271e-02 4.06942100e-19)	(1.76335018e-01 -1.48871873e+00 0.00000000e+00)
0.45            	p               	-1.03393377e+00	(2.01798769e-01 -1.01443079e+00 -1.39798975e-17)	9.06142399e-01	(-1.03340804e+00 -4.06193460e-02 0.00000000e+00)
0.45            	U               	(7.28778320e-02 -1.34251668e-01 -3.06578273e-19)	(-9.39341130e-01 -4.33038181e-01 -1.43717227e-17)	(1.47134961e+00 1.89442011e-01 3.89688367e-19)	(-1.76335018e-01 1.48871873e+00 0.00000000e+00)
0.5             	p               	-1.01835150e+00	(2.01798769e-01 -1.01443079e+00 -1.39798975e-17)	8.82417345e-01	(-1.03340804e+00 -4.06193460e-02 0.00000000e+00)
0.5             	U               	(6.96739966e-02 -5.74573020e-02 -2.11314891e-19)	(7.02007805e-01 7.59452234e-01 0.00000000e+00)	(1.46147714e+00 1.95184053e-01 3.84536143e-19)	(-1.76335018e-01 1.48871873e+00 0.00000000e+00)
0.55            	p               	-1.00430944e+00	(2.01798769e-01 -1.01443079e+00 -1.39798975e-17)	8.62839729e-01	(-1.03340804e+00 -4.06193460e-02 0.00000000e+00)
0.55            	U               	(6.36218376e-02 -5.20516070e-02 -2.08753530e-19)	(7.02007805e-01 7.59452234e-01 0.00000000e+00)	(1.45073182e+00 2.00473563e-01 3.78782078e-19)	(-1.76335018e-01 1.48871873e+00 0.00000000e+00)
0.6             	p               	-9.91501553e-01	(2.01798769e-01 -1.01443079e+00 -1.39798975e-17)	8.46430296e-01	(-1.03340804e+00 -4.06193460e-02 0.00000000e+00)
0.6             	U               	(5.83309027e-02 -4.73218217e-02 -2.06050516e-19)	(7.02007805e-01 7.59452234e-01 0.00000000e+00)	(1.46385868e+00 1.17747753e-01 5.30374454e-20)	(-6.23548572e-02 1.58478854e+00 2.94583703e-17)
0.65            	p               	-9.79699786e-01	(2.01798769e-01 -1.01443079e+00 -1.39798975e-17)	8.32504355e-01	(-1.03340804e+00 4.06193460e-02 0.00000000e+00)
0.65            	U               	(5.36618684e-02 -4.31467106e-02 -2.03247254e-19)	(7.02007805e-01 7.59452234e-01 0.00000000e+00)	(1.42821974e+00 2.09889662e-01 3.66480771e-19)	(-1.76335018e-01 1.48871873e+00 0.00000000e+00)
0.7             	p               	-9.68732827e-01	(2.01798769e-01 -1.01443079e+00 -1.39798975e-17)	8.20566546e-01	(-1.03340804e+00 4.06193460e-02 0.00000000e+00)
0.7             	U               	(4.95114055e-02 -3.94341238e-02 -2.00372850e-19)	(7.02007805e-01 7.59452234e-01 0.00000000e+00)	(1.45012912e+00 1.29478533e-01 5.22734139e-20)	(-6.23548572e-02 1.58478854e+00 2.94583703e-17)
0.75            	p               	-9.58471049e-01	(2.01798769e-01 -1.01443079e+00 -1.39798975e-17)	8.10244841e-01	(-1.03340804e+00 4.06193460e-02 0.00000000e+00)
0.75            	U               	(4.57992991e-02 -3.61125695e-02 -1.97450018e-19)	(7.02007805e-01 7.59452234e-01 0.00000000e+00)	(1.19703897e+00 4.88458928e-01 2.75073925e-19)	(-5.92566600e-01 1.28544556e+00 0.00000000e+00)
0.8             	p               	-9.48813259e-01	(2.01798769e-01 -1.01443079e+00 -1.39798975e-17)	8.01253131e-01	(-1.03340804e+00 4.06193460e-02 0.00000000e+00)
0.8             	U               	(4.24618078e-02 -3.31255005e-02 -1.94497232e-19)	(7.02007805e-01 7.59452234e-01 0.00000000e+00)	(1.18763418e+00 4.88211824e-01 2.71262690e-19)	(-5.92566600e-01 1.28544556e+00 0.00000000e+00)
0.85            	p               	-9.39679401e-01	(2.01798769e-01 -1.01443079e+00 -1.39798975e-17)	7.93367414e-01	(-1.03340804e+00 4.06193460e-02 0.00000000e+00)
0.85            	U               	(3.94475495e-02 -3.04274297e-02 -1.91529577e-19)	(7.02007805e-01 7.59452234e-01 0.00000000e+00)	(1.29252040e+00 4.07144112e-01 2.36361223e-19)	(-5.49829753e-01 1.49026173e+00 1.44866118e-17)
0.9             	p               	-9.31005026e-01	(2.01798769e-01 -1.01443079e+00 -1.39798975e-17)	7.86410058e-01	(-1.03340804e+00 4.06193460e-02 0.00000000e+00)
0.9             	U               	(3.67145905e-02 -2.79812300e-02 -1.88559409e-19)	(7.02007805e-01 7.59452234e-01 0.00000000e+00)	(1.28702961e+00 4.09614309e-01 2.35357152e-19)	(-5.49829753e-01 1.49026173e+00 1.44866118e-17)
0.95            	p               	-9.22737568e-01	(2.01798769e-01 -1.01443079e+00 -1.39798975e-17)	7.80238239e-01	(-1.03340804e+00 4.06193460e-02 0.00000000e+00)
0.95            	U               	(3.42282995e-02 -2.57562095e-02 -1.85596917e-19)	(7.02007805e-01 7.59452234e-01 0.00000000e+00)	(1.28165979e+00 4.11879155e-01 2.34346742e-19)	(-5.49829753e-01 1.49026173e+00 1.44866118e-17)
1               	p               	-9.14833701e-01	(2.01798769e-01 -1.01443079e+00 -1.39798975e-17)	7.74736027e-01	(-1.03340804e+00 4.06193460e-02 0.00000000e+00)
1               	U               	(3.19597541e-02 -2.37267064e-02 -1.82650570e-19)	(7.02007805e-01 7.59452234e-01 0.00000000e+00)	(1.15563555e+00 4.87127452e-01 2.57858998e-19)	(-5.92566600e-01 1.28544556e+00 0.00000000e+00)
1.05            	p               	-9.07257359e-01	(2.01798769e-01 -1.01443079e+00 -1.39798975e-17)	7.69808239e-01	(-1.03340804e+00 4.06193460e-02 0.00000000e+00)
1.05            	U               	(2.98845527e-02 -2.18710460e-02 -1.79727493e-19)	(7.02007805e-01 7.59452234e-01 0.00000000e+00)	(1.27134973e+00 4.15887338e-01 2.32320853e-19)	(-5.49829753e-01 1.49026173e+00 1.44866118e-17)
1.1             	p               	-8.99977108e-01	(2.01798769e-01 1.01443079e+00 1.39798975e-17)	7.65377307e-01	(-1.03340804e+00 -4.06193460e-02 0.00000000e+00)
1.1             	U               	(2.79819085e-02 -2.01707481e-02 -1.76833639e-19)	(7.02007805e-01 7.59452234e-01 0.00000000e+00)	(1.26642716e+00 4.17669532e-01 2.31311347e-19)	(-5.49829753e-01 1.49026173e+00 1.44866118e-17)
1.15            	p               	-8.92970311e-01	(2.01798769e-01 -1.01443079e+00 -1.39798975e-17)	7.61374300e-01	(-1.03340804e+00 4.06193460e-02 0.00000000e+00)
1.15            	U               	(2.62339722e-02 -1.86099287e-02 -1.73974012e-19)	(7.02007805e-01 7.59452234e-01 0.00000000e+00)	(1.40768282e+00 2.07767522e-02 1.28704243e-19)	(2.20093220e-01 1.85765077e+00 0.00000000e+00)
1.2             	p               	-8.86212065e-01	(2.01798769e-01 -1.01443079e+00 -1.39798975e-17)	7.57746947e-01	(-1.03340804e+00 4.06193460e-02 0.00000000e+00)
1.2             	U               	(2.46253023e-02 -1.71748261e-02 -1.71153011e-19)	(7.02007805e-01 7.59452234e-01 0.00000000e+00)	(1.25706057e+00 4.20867222e-01 2.29311171e-19)	(-5.49829753e-01 1.49026173e+00 1.44866118e-17)
1.25            	p               	-8.79684710e-01	(2.01798769e-01 1.01443079e+00 1.39798975e-17)	7.54447252e-01	(-1.03340804e+00 4.06193460e-02 0.00000000e+00)
1.25            	U               	(2.29815234e-02 -3.13254619e-02 -1.94472435e-19)	(1.10565837e+00 4.07913059e-01 1.04508224e-17)	(1.25261425e+00 4.22307311e-01 2.28324551e-19)	(-5.49829753e-01 1.49026173e+00 1.44866118e-17)
1.3             	p               	-8.73371744e-01	(2.01798769e-01 -1.01443079e+00 -1.39798975e-17)	7.51435493e-01	(-1.03340804e+00 4.06193460e-02 0.00000000e+00)
1.3             	U               	(2.01229358e-02 -2.63333908e-02 -1.89171399e-19)	(1.10565837e+00 4.07913059e-01 1.04508224e-17)	(1.24832174e+00 4.23655243e-01 2.27349149e-19)	(-5.49829753e-01 1.49026173e+00 1.44866118e-17)
1.35            	p               	-8.67258967e-01	(2.01798769e-01 -1.01443079e+00 -1.39798975e-17)	7.48677491e-01	(-1.03340804e+00 4.06193460e-02 0.00000000e+00)
1.35            	U               	(1.74543465e-02 -2.16501741e-02 -1.84103637e-19)	(1.10565837e+00 4.07913059e-01 1.04508224e-17)	(1.24417866e+00 4.24919603e-01 2.26386756e-19)	(-5.49829753e-01 1.49026173e+00 1.44866118e-17)
1.4             	p               	-8.61333824e-01	(2.01798769e-01 -1.01443079e+00 -1.39798975e-17)	7.46143984e-01	(-1.03340804e+00 4.06193460e-02 0.00000000e+00)
1.4             	U               	(1.49615759e-02 -1.72540937e-02 -1.79253335e-19)	(1.10565837e+00 4.07913059e-01 1.04508224e-17)	(1.24017998e+00 4.26107836e-01 2.25437990e-19)	(-5.49829753e-01 1.49026173e+00 1.44866118e-17)
1.45            	p               	-8.55585324e-01	(2.01798769e-01 -1.01443079e+00 -1.39798975e-17)	7.43809475e-01	(-1.03340804e+00 4.06193460e-02 0.00000000e+00)
1.45            	U               	(1.26318233e-02 -1.31255607e-02 -1.74607391e-19)	(1.10565837e+00 4.07913059e-01 1.04508224e-17)	(1.23632028e+00 4.27226409e-01 2.24503427e-19)	(-5.49829753e-01 1.49026173e+00 1.44866118e-17)
1.5             	p               	-8.50003703e-01	(2.01798769e-01 -1.01443079e+00 -1.39798975e-17)	7.41651922e-01	(-1.03340804e+00 4.06193460e-02 0.00000000e+00)
1.5             	U               	(1.72473120e-02 -1.06231654e-02 -1.55204647e-19)	(7.02007805e-01 7.59452234e-01 0.00000000e+00)	(1.38820441e+00 1.21254969e-01 9.97467207e-20)	(6.96548838e-02 1.76997362e+00 0.00000000e+00)
1.55            	p               	-8.44580162e-01	(2.01798769e-01 -1.01443079e+00 -1.39798975e-17)	7.39652102e-01	(-1.03340804e+00 4.06193460e-02 0.00000000e+00)
1.55            	U               	(1.63139045e-02 -9.80025578e-03 -1.52728414e-19)	(7.02007805e-01 7.59452234e-01 0.00000000e+00)	(1.37203753e+00 1.76349115e-01 1.97832847e-19)	(-7.35095758e-02 1.86775839e+00 9.86917004e-18)
1.6             	p               	-8.39327415e-01	(1.21582604e-01 -1.02709283e+00 -2.64491183e-17)	7.37793110e-01	(-1.03340804e+00 4.06193460e-02 0.00000000e+00)
1.6             	U               	(1.54468772e-02 -9.03779892e-03 -1.50307336e-19)	(7.02007805e-01 7.59452234e-01 0.00000000e+00)	(1.31459569e+00 2.81022627e-01 2.35334602e-19)	(-3.65380545e-01 1.83572112e+00 0.00000000e+00)
1.65            	p               	-8.34334841e-01	(1.21582604e-01 -1.02709283e+00 -2.64491183e-17)	7.36060201e-01	(-1.03340804e+00 4.06193460e-02 0.00000000e+00)
1.65            	U               	(1.46408760e-02 -8.33096347e-03 -1.47942252e-19)	(7.02007805e-01 7.59452234e-01 0.00000000e+00)	(1.31241419e+00 2.83407510e-01 2.34078815e-19)	(-3.65380545e-01 1.83572112e+00 0.00000000e+00)
1.7             	p               	-8.29472749e-01	(1.21582604e-01 -1.02709283e+00 -2.64491183e-17)	7.34440405e-01	(-1.03340804e+00 4.06193460e-02 0.00000000e+00)
1.7             	U               	(1.38910508e-02 -7.67536377e-03 -1.45633551e-19)	(7.02007805e-01 7.59452234e-01 0.00000000e+00)	(1.27879459e+00 3.50526739e-01 2.08056128e-19)	(-4.81739223e-01 1.70757903e+00 -3.38442467e-17)
1.75            	p               	-8.24735674e-01	(1.21582604e-01 -1.02709283e+00 -2.64491183e-17)	7.32922204e-01	(-1.03340804e+00 4.06193460e-02 0.00000000e+00)
1.75            	U               	(1.31929986e-02 -7.06701293e-03 -1.43381458e-19)	(7.02007805e-01 7.59452234e-01 0.00000000e+00)	(1.27631800e+00 3.52216737e-01 2.07084557e-19)	(-4.81739223e-01 1.70757903e+00 -3.38442467e-17)
1.8             	p               	-8.20118567e-01	(1.21582604e-01 -1.02709283e+00 -2.64491183e-17)	7.31495425e-01	(-1.03340804e+00 4.06193460e-02 0.00000000e+00)
1.8             	U               	(1.25427125e-02 -6.50227691e-03 -1.41186000e-19)	(7.02007805e-01 7.59452234e-01 0.00000000e+00)	(1.27389341e+00 3.53834591e-01 2.06123340e-19)	(-4.81739223e-01 1.70757903e+00 -3.38442467e-17)
1.85            	p               	-8.15616709e-01	(1.21582604e-01 -1.02709283e+00 -2.64491183e-17)	7.30151052e-01	(-1.03340804e+00 4.06193460e-02 0.00000000e+00)
1.85            	U               	(1.19365396e-02 -5.97783799e-03 -1.39046998e-19)	(7.02007805e-01 7.59452234e-01 0.00000000e+00)	(1.27152026e+00 3.55383928e-01 2.05173568e-19)	(-4.81739223e-01 1.70757903e+00 -3.38442467e-17)
1.9             	p               	-8.11225666e-01	(1.21582604e-01 -1.02709283e+00 -2.64491183e-17)	7.28881082e-01	(-1.03340804e+00 4.06193460e-02 0.00000000e+00)
1.9             	U               	(1.11260180e-02 -3.19467000e-02 -2.04477370e-19)	(1.48871873e+00 1.76335018e-01 0.00000000e+00)	(1.26919772e+00 3.56868138e-01 2.04236092e-19)	(-4.81739223e-01 1.70757903e+00 -3.38442467e-17)
1.95            	p               	-8.06941277e-01	(1.21582604e-01 -1.02709283e+00 -2.64491183e-17)	7.27678383e-01	(-1.03340804e+00 4.06193460e-02 0.00000000e+00)
1.95            	U               	(7.11843339e-03 -2.96569246e-02 -1.99433066e-19)	(1.48871873e+00 1.76335018e-01 0.00000000e+00)	(1.26692477e+00 3.58290397e-01 2.03311478e-19)	(-4.81739223e-01 1.70757903e+00 -3.38442467e-17)
2               	p               	-8.02759608e-01	(1.21582604e-01 -1.02709283e+00 -2.64491183e-17)	7.26536605e-01	(-1.03340804e+00 4.06193460e-02 0.00000000e+00)
2               	U               	(3.31191011e-03 -2.74544683e-02 -1.94338077e-19)	(1.48871873e+00 1.76335018e-01 0.00000000e+00)	(1.26470024e+00 3.59653693e-01 2.02400135e-19)	(-4.81739223e-01 1.70757903e+00 -3.38442467e-17)
2.05            	p               	-7.98676926e-01	(1.21582604e-01 -1.02709283e+00 -2.64491183e-17)	7.25450052e-01	(-1.03340804e+00 4.06193460e-02 0.00000000e+00)
2.05            	U               	(-3.02790243e-04 -2.53367937e-02 -1.89298219e-19)	(1.48871873e+00 1.76335018e-01 0.00000000e+00)	(1.26252284e+00 3.60960832e-01 2.01502558e-19)	(-4.81739223e-01 1.70757903e+00 -3.38442467e-17)
2.1             	p               	-7.94689694e-01	(1.21582604e-01 -1.02709283e+00 -2.64491183e-17)	7.24413648e-01	(-1.03340804e+00 4.06193460e-02 0.00000000e+00)
2.1             	U               	(-3.73440921e-03 -2.33014217e-02 -1.84327298e-19)	(1.48871873e+00 1.76335018e-01 0.00000000e+00)	(1.26039124e+00 3.62214467e-01 2.00619021e-19)	(-4.81739223e-01 1.70757903e+00 -3.38442467e-17)
2.15            	p               	-7.90794552e-01	(1.21582604e-01 -1.02709283e+00 -2.64491183e-17)	7.23422859e-01	(-1.03340804e+00 4.06193460e-02 0.00000000e+00)
2.15            	U               	(-6.99122056e-03 -2.13458752e-02 -1.79435286e-19)	(1.48871873e+00 1.76335018e-01 0.00000000e+00)	(1.25830390e+00 3.63417014e-01 1.99701095e-19)	(-4.81739223e-01 1.70757903e+00 -3.38442467e-17)
2.2             	p               	-7.86988296e-01	(1.21582604e-01 -1.02709283e+00 -2.64491183e-17)	7.22473609e-01	(-1.03340804e+00 4.06193460e-02 0.00000000e+00)
2.2             	U               	(-1.00812851e-02 -1.94676697e-02 -1.74565204e-19)	(1.48871873e+00 1.76335018e-01 0.00000000e+00)	(1.19140678e+00 4.38290400e-01 2.12081510e-19)	(-5.49829753e-01 1.49026173e+00 1.44866118e-17)
2.25            	p               	-7.83267880e-01	(1.21582604e-01 -1.02709283e+00 -2.64491183e-17)	7.21562252e-01	(-1.03340804e+00 4.06193460e-02 0.00000000e+00)
2.25            	U               	(-1.30121542e-02 -1.76643762e-02 -1.69742576e-19)	(1.48871873e+00 1.76335018e-01 0.00000000e+00)	(1.18906319e+00 4.38757117e-01 2.11344930e-19)	(-5.49829753e-01 1.49026173e+00 1.44866118e-17)
2.3             	p               	-7.79630393e-01	(1.21582604e-01 -1.02709283e+00 -2.64491183e-17)	7.20685517e-01	(-1.03340804e+00 4.06193460e-02 0.00000000e+00)
2.3             	U               	(-1.57907082e-02 -1.59336031e-02 -1.65024405e-19)	(1.48871873e+00 1.76335018e-01 0.00000000e+00)	(1.18677930e+00 4.39199155e-01 2.10622483e-19)	(-5.49829753e-01 1.49026173e+00 1.44866118e-17)
2.35            	p               	-7.76073052e-01	(1.21582604e-01 -1.02709283e+00 -2.64491183e-17)	7.19840463e-01	(-1.03340804e+00 4.06193460e-02 0.00000000e+00)
2.35            	U               	(-1.84236269e-02 -1.42730358e-02 -1.60414926e-19)	(1.48871873e+00 1.76335018e-01 0.00000000e+00)	(1.35149723e+00 5.07409280e-02 8.29931181e-20)	(4.05887266e-01 2.03909204e+00 0.00000000e+00)
2.4             	p               	-7.72593211e-01	(1.21582604e-01 -1.02709283e+00 -2.64491183e-17)	7.19024451e-01	(-1.03340804e+00 4.06193460e-02 0.00000000e+00)
2.4             	U               	(-2.09174024e-02 -1.26804289e-02 -1.55917359e-19)	(1.48871873e+00 1.76335018e-01 0.00000000e+00)	(1.34999649e+00 5.37392316e-02 8.24141070e-20)	(4.05887266e-01 2.03909204e+00 0.00000000e+00)
2.45            	p               	-7.69188328e-01	(1.21582604e-01 -1.02709283e+00 -2.64491183e-17)	7.18235119e-01	(-1.03340804e+00 4.06193460e-02 0.00000000e+00)
2.45            	U               	(-2.32782768e-02 -1.11535669e-02 -1.51530126e-19)	(1.48871873e+00 1.76335018e-01 0.00000000e+00)	(1.34848314e+00 5.66636017e-02 8.18394805e-20)	(4.05887266e-01 2.03909204e+00 0.00000000e+00)
2.5             	p               	-7.65856015e-01	(1.21582604e-01 -1.02709283e+00 -2.64491183e-17)	7.17470315e-01	(-1.03340804e+00 4.06193460e-02 0.00000000e+00)
2.5             	U               	(-2.55122265e-02 -9.69024160e-03 -1.47255780e-19)	(1.48871873e+00 1.76335018e-01 0.00000000e+00)	(1.34695992e+00 5.95149709e-02 8.12698363e-20)	(4.05887266e-01 2.03909204e+00 0.00000000e+00)
2.55            	p               	-7.62593949e-01	(1.21582604e-01 -1.02709283e+00 -2.64491183e-17)	7.16728130e-01	(-1.03340804e+00 4.06193460e-02 0.00000000e+00)
2.55            	U               	(-2.76249492e-02 -8.28826136e-03 -1.43095652e-19)	(1.48871873e+00 1.76335018e-01 0.00000000e+00)	(1.34542925e+00 6.22943659e-02 8.07057029e-20)	(4.05887266e-01 2.03909204e+00 0.00000000e+00)
2.6             	p               	-7.59399908e-01	(1.21582604e-01 -1.02709283e+00 -2.64491183e-17)	7.16006852e-01	(-1.03340804e+00 4.06193460e-02 0.00000000e+00)
2.6             	U               	(-2.96218903e-02 -6.94556154e-03 -1.39051617e-19)	(1.48871873e+00 1.76335018e-01 0.00000000e+00)	(1.34389325e+00 6.50029040e-02 8.01475417e-20)	(4.05887266e-01 2.03909204e+00 0.00000000e+00)
2.65            	p               	-7.56271796e-01	(1.21582604e-01 -1.02709283e+00 -2.64491183e-17)	7.15304916e-01	(-1.03340804e+00 4.06193460e-02 0.00000000e+00)
2.65            	U               	(-3.15082655e-02 -5.66014733e-03 -1.35123741e-19)	(1.48871873e+00 1.76335018e-01 0.00000000e+00)	(1.34235375e+00 6.76417887e-02 7.95957556e-20)	(4.05887266e-01 2.03909204e+00 0.00000000e+00)
2.7             	p               	-7.53207600e-01	(1.21582604e-01 -1.02709283e+00 -2.64491183e-17)	7.14620930e-01	(-1.03340804e+00 -4.06193460e-02 0.00000000e+00)
2.7             	U               	(-3.32890790e-02 -4.43004768e-03 -1.31311517e-19)	(1.48871873e+00 1.76335018e-01 0.00000000e+00)	(1.34081239e+00 7.02123023e-02 7.90506934e-20)	(4.05887266e-01 2.03909204e+00 0.00000000e+00)
2.75            	p               	-7.50205382e-01	(1.21582604e-01 -1.02709283e+00 -2.64491183e-17)	7.13953632e-01	(-1.03340804e+00 -4.06193460e-02 0.00000000e+00)
2.75            	U               	(-3.49691113e-02 -3.25334790e-03 -1.27609625e-19)	(1.48871873e+00 1.76335018e-01 0.00000000e+00)	(1.16848812e+00 4.42244292e-01 2.04646129e-19)	(-5.49829753e-01 1.49026173e+00 1.44866118e-17)
2.8             	p               	-7.47263290e-01	(1.21582604e-01 1.02709283e+00 2.64491183e-17)	7.13301888e-01	(-1.03340804e+00 -4.06193460e-02 0.00000000e+00)
2.8             	U               	(-3.65529308e-02 -2.12822567e-03 -1.24007948e-19)	(1.48871873e+00 1.76335018e-01 0.00000000e+00)	(1.16666825e+00 4.42495965e-01 2.04014943e-19)	(-5.49829753e-01 1.49026173e+00 1.44866118e-17)
2.85            	p               	-7.44379551e-01	(1.21582604e-01 1.02709283e+00 2.64491183e-17)	7.12664671e-01	(-1.03340804e+00 -4.06193460e-02 0.00000000e+00)
2.85            	U               	(-3.80449162e-02 -1.05275221e-03 -1.20509866e-19)	(1.48871873e+00 1.76335018e-01 0.00000000e+00)	(1.16488452e+00 4.42733312e-01 2.03395358e-19)	(-5.49829753e-01 1.49026173e+00 1.44866118e-17)
2.9             	p               	-7.41552465e-01	(1.21582604e-01 1.02709283e+00 2.64491183e-17)	7.12041060e-01	(-1.03340804e+00 -4.06193460e-02 0.00000000e+00)
2.9             	U               	(-1.75501830e-03 -2.95126036e-02 -1.19824207e-19)	(1.02819339e+00 -5.75773652e-01 -2.16706732e-17)	(1.16313553e+00 4.42957046e-01 2.02787076e-19)	(-5.49829753e-01 1.49026173e+00 1.44866118e-17)
2.95            	p               	-7.38780402e-01	(1.21582604e-01 1.02709283e+00 2.64491183e-17)	7.11430225e-01	(-1.03340804e+00 -4.06193460e-02 0.00000000e+00)
2.95            	U               	(-2.26302779e-03 -3.02018979e-02 -1.18195445e-19)	(1.02819339e+00 -5.75773652e-01 -2.16706732e-17)	(1.16141994e+00 4.43167839e-01 2.02189803e-19)	(-5.49829753e-01 1.49026173e+00 1.44866118e-17)
3               	p               	-7.36061801e-01	(1.21582604e-01 1.02709283e+00 2.64491183e-17)	7.10831410e-01	(-1.03340804e+00 -4.06193460e-02 0.00000000e+00)
3               	U               	(-2.73895725e-03 -3.08397771e-02 -1.16616093e-19)	(1.02819339e+00 -5.75773652e-01 -2.16706732e-17)	(1.15973649e+00 4.43366332e-01 2.01603252e-19)	(-5.49829753e-01 1.49026173e+00 1.44866118e-17)
3.05            	p               	-7.33395161e-01	(1.21582604e-01 1.02709283e+00 2.64491183e-17)	7.10243935e-01	(-1.03340804e+00 -4.06193460e-02 0.00000000e+00)
3.05            	U               	(3.53511720e-03 -3.99016993e-02 -1.07128585e-19)	(1.85765077e+00 2.20093220e-01 -1.06142564e-17)	(1.15808401e+00 4.43553134e-01 2.01027145e-19)	(-5.49829753e-01 1.49026173e+00 1.44866118e-17)
3.1             	p               	-7.30779028e-01	(1.21582604e-01 1.02709283e+00 2.64491183e-17)	7.09667322e-01	(-1.03340804e+00 -4.06193460e-02 0.00000000e+00)
3.1             	U               	(5.60077371e-05 -3.82641020e-02 -1.05302520e-19)	(1.85765077e+00 2.20093220e-01 -1.06142564e-17)	(1.15646137e+00 4.43728830e-01 2.00461245e-19)	(-5.49829753e-01 1.49026173e+00 1.44866118e-17)
3.15            	p               	-7.28213024e-01	(1.21582604e-01 -1.02709283e+00 -2.64491183e-17)	7.09099878e-01	(-1.03340804e+00 4.06193460e-02 0.00000000e+00)
3.15            	U               	(-3.27083920e-03 -3.66726431e-02 -1.03485653e-19)	(1.85765077e+00 2.20093220e-01 -1.06142564e-17)	(1.30455166e+00 2.41193099e-01 1.61526216e-19)	(-7.35095758e-02 1.86775839e+00 9.86917004e-18)
3.2             	p               	-7.25692756e-01	(1.21582604e-01 1.02709283e+00 2.64491183e-17)	7.08543887e-01	(-1.03340804e+00 4.06193460e-02 0.00000000e+00)
3.2             	U               	(-6.45086736e-03 -3.51267551e-02 -1.01681124e-19)	(1.85765077e+00 2.20093220e-01 -1.06142564e-17)	(1.30329202e+00 3.01624770e-02 1.35225872e-19)	(6.90656563e-01 2.44782347e+00 0.00000000e+00)
3.25            	p               	-7.23220317e-01	(1.21582604e-01 -1.02709283e+00 -2.64491183e-17)	7.07995969e-01	(-1.03340804e+00 4.06193460e-02 0.00000000e+00)
3.25            	U               	(-9.48936309e-03 -3.36258122e-02 -9.98911021e-20)	(1.85765077e+00 2.20093220e-01 -1.06142564e-17)	(1.32404142e+00 9.43940314e-02 7.35561836e-20)	(4.05887266e-01 2.03909204e+00 0.00000000e+00)
3.3             	p               	-7.20792894e-01	(1.21582604e-01 -1.02709283e+00 -2.64491183e-17)	7.07457040e-01	(-1.03340804e+00 4.06193460e-02 0.00000000e+00)
3.3             	U               	(-1.23916289e-02 -3.21690781e-02 -9.80577306e-20)	(1.85765077e+00 2.20093220e-01 -1.06142564e-17)	(1.32255217e+00 9.62604103e-02 7.31045357e-20)	(4.05887266e-01 2.03909204e+00 0.00000000e+00)
3.35            	p               	-7.18409545e-01	(1.21582604e-01 -1.02709283e+00 -2.64491183e-17)	7.06926563e-01	(-1.03340804e+00 4.06193460e-02 0.00000000e+00)
3.35            	U               	(-5.31940418e-03 -3.40936755e-02 -1.06815028e-19)	(1.02819339e+00 -5.75773652e-01 -2.16706732e-17)	(1.32107093e+00 9.80781548e-02 7.26608837e-20)	(4.05887266e-01 2.03909204e+00 0.00000000e+00)
3.4             	p               	-7.16069124e-01	(1.21582604e-01 -1.02709283e+00 -2.64491183e-17)	7.06404163e-01	(-1.03340804e+00 4.06193460e-02 0.00000000e+00)
3.4             	U               	(-5.59873376e-03 -3.44138496e-02 -1.05576763e-19)	(1.02819339e+00 -5.75773652e-01 -2.16706732e-17)	(1.30224277e+00 3.84501069e-02 1.33445024e-19)	(6.90656563e-01 2.44782347e+00 0.00000000e+00)
3.45            	p               	-7.13770526e-01	(1.21582604e-01 -1.02709283e+00 -2.64491183e-17)	7.05889507e-01	(-1.03340804e+00 4.06193460e-02 0.00000000e+00)
3.45            	U               	(-5.85958761e-03 -3.47040098e-02 -1.04375021e-19)	(1.02819339e+00 -5.75773652e-01 -2.16706732e-17)	(1.30192824e+00 4.04217830e-02 1.32991600e-19)	(6.90656563e-01 2.44782347e+00 0.00000000e+00)
3.5             	p               	-7.11512664e-01	(1.21582604e-01 -1.02709283e+00 -2.64491183e-17)	7.05382365e-01	(-1.03340804e+00 4.06193460e-02 0.00000000e+00)
3.5             	U               	(-6.10306595e-03 -3.49659344e-02 -1.03208585e-19)	(1.02819339e+00 -5.75773652e-01 -2.16706732e-17)	(1.30159498e+00 4.23547883e-02 1.32536132e-19)	(6.90656563e-01 2.44782347e+00 0.00000000e+00)
3.55            	p               	-7.09294511e-01	(1.21582604e-01 -1.02709283e+00 -2.64491183e-17)	7.04882433e-01	(-1.03340804e+00 4.06193460e-02 0.00000000e+00)
3.55            	U               	(-6.33020376e-03 -3.52013054e-02 -1.02076314e-19)	(1.02819339e+00 -5.75773652e-01 -2.16706732e-17)	(1.30124399e+00 4.42498899e-02 1.32079159e-19)	(6.90656563e-01 2.44782347e+00 0.00000000e+00)
3.6             	p               	-7.07115063e-01	(1.21582604e-01 -1.02709283e+00 -2.64491183e-17)	7.04389477e-01	(-1.03340804e+00 4.06193460e-02 0.00000000e+00)
3.6             	U               	(-6.54197546e-03 -3.54117144e-02 -1.00977089e-19)	(1.02819339e+00 -5.75773652e-01 -2.16706732e-17)	(1.30087622e+00 4.61078726e-02 1.31621189e-19)	(6.90656563e-01 2.44782347e+00 0.00000000e+00)
3.65            	p               	-7.04973476e-01	(1.21582604e-01 -1.02709283e+00 -2.64491183e-17)	7.03903275e-01	(-1.03340804e+00 4.06193460e-02 0.00000000e+00)
3.65            	U               	(-6.73930089e-03 -3.55986704e-02 -9.99098138e-20)	(1.02819339e+00 -5.75773652e-01 -2.16706732e-17)	(1.30049260e+00 4.79295315e-02 1.31162712e-19)	(6.90656563e-01 2.44782347e+00 0.00000000e+00)
3.7             	p               	-7.02868545e-01	(1.21582604e-01 -1.02709283e+00 -2.64491183e-17)	7.03423615e-01	(-1.03340804e+00 4.06193460e-02 0.00000000e+00)
3.7             	U               	(-6.92304190e-03 -3.57635928e-02 -9.88734687e-20)	(1.02819339e+00 -5.75773652e-01 -2.16706732e-17)	(1.30009400e+00 4.97156668e-02 1.30704122e-19)	(6.90656563e-01 2.44782347e+00 0.00000000e+00)
3.75            	p               	-7.00799495e-01	(1.21582604e-01 -1.02709283e+00 -2.64491183e-17)	7.02950344e-01	(-1.03340804e+00 4.06193460e-02 0.00000000e+00)
3.75            	U               	(-7.09401149e-03 -3.59078269e-02 -9.78670243e-20)	(1.02819339e+00 -5.75773652e-01 -2.16706732e-17)	(1.29968127e+00 5.14670781e-02 1.30245845e-19)	(6.90656563e-01 2.44782347e+00 0.00000000e+00)
3.8             	p               	-6.98765448e-01	(1.21582604e-01 -1.02709283e+00 -2.64491183e-17)	7.02483276e-01	(-1.03340804e+00 4.06193460e-02 0.00000000e+00)
3.8             	U               	(-7.25297568e-03 -3.60326454e-02 -9.68895098e-20)	(1.02819339e+00 -5.75773652e-01 -2.16706732e-17)	(1.29925523e+00 5.31845602e-02 1.29788254e-19)	(6.90656563e-01 2.44782347e+00 0.00000000e+00)
3.85            	p               	-6.96765551e-01	(1.21582604e-01 -1.02709283e+00 -2.64491183e-17)	7.02022253e-01	(-1.03340804e+00 4.06193460e-02 0.00000000e+00)
3.85            	U               	(-7.40065606e-03 -3.61392523e-02 -9.59399797e-20)	(1.02819339e+00 -5.75773652e-01 -2.16706732e-17)	(1.29881666e+00 5.48689002e-02 1.29331692e-19)	(6.90656563e-01 2.44782347e+00 0.00000000e+00)