# Field minima and maxima
# Time         	field          	min            	location(min)  	max            	location(max)  
0.05           	p              	0.00000000e+00	(9.98412828e+00 -4.34587305e-01 5.00000000e-02)	1.71822030e+00	(2.49603207e-01 -4.82874783e-02 5.00000000e-02)
0.05           	U              	(-5.93393789e-03 -2.13938999e-03 0.00000000e+00)	(4.99206414e-02 -4.34587305e-01 5.00000000e-02)	(7.29310019e-03 8.12875818e-10 2.16192678e-33)	(4.04357195e+00 -4.82874783e-02 5.00000000e-02)
0.1            	p              	0.00000000e+00	(9.98412828e+00 -4.34587305e-01 5.00000000e-02)	1.53103000e+00	(0.00000000e+00 -4.34587305e-01 5.00000000e-02)
0.1            	U              	(1.04335111e-03 -2.67767845e-03 0.00000000e+00)	(4.99206414e-02 -4.34587305e-01 5.00000000e-02)	(1.50127190e-02 -3.46682379e-09 1.84143908e-33)	(4.04357195e+00 -4.82874783e-02 5.00000000e-02)
0.15           	p              	0.00000000e+00	(9.98412828e+00 -4.34587305e-01 5.00000000e-02)	1.53103000e+00	(0.00000000e+00 -4.34587305e-01 5.00000000e-02)
0.15           	U              	(7.82816899e-03 -2.43459107e-03 0.00000000e+00)	(4.99206414e-02 -4.34587305e-01 5.00000000e-02)	(2.26745977e-02 1.57391732e-09 1.89067362e-33)	(4.04357195e+00 -4.82874783e-02 5.00000000e-02)
0.2            	p              	0.00000000e+00	(9.98412828e+00 -4.34587305e-01 5.00000000e-02)	1.53103000e+00	(0.00000000e+00 -4.34587305e-01 5.00000000e-02)
0.2            	U              	(1.45691764e-02 -2.11251125e-03 0.00000000e+00)	(4.99206414e-02 -4.34587305e-01 5.00000000e-02)	(3.03372901e-02 -3.97578191e-10 1.88074196e-33)	(4.04357195e+00 -4.82874783e-02 5.00000000e-02)
0.25           	p              	0.00000000e+00	(9.98412828e+00 -4.34587305e-01 5.00000000e-02)	1.53103000e+00	(0.00000000e+00 -4.34587305e-01 5.00000000e-02)
0.25           	U              	(2.07934322e-02 -1.78591796e-03 0.00000000e+00)	(4.99206414e-02 -4.34587305e-01 5.00000000e-02)	(3.79971161e-02 1.89913682e-11 1.88200146e-33)	(4.04357195e+00 -4.82874783e-02 5.00000000e-02)
0.3            	p              	0.00000000e+00	(9.98412828e+00 -4.34587305e-01 5.00000000e-02)	1.53103000e+00	(0.00000000e+00 -4.34587305e-01 5.00000000e-02)
0.3            	U              	(2.65418599e-02 -1.48832143e-03 0.00000000e+00)	(4.99206414e-02 -4.34587305e-01 5.00000000e-02)	(4.56563301e-02 4.44503838e-10 1.88164439e-33)	(4.04357195e+00 -4.82874783e-02 5.00000000e-02)
0.35           	p              	0.00000000e+00	(9.98412828e+00 -4.34587305e-01 5.00000000e-02)	1.53103000e+00	(0.00000000e+00 -4.34587305e-01 5.00000000e-02)
0.35           	U              	(3.18467714e-02 -1.22677208e-03 0.00000000e+00)	(4.99206414e-02 -4.34587305e-01 5.00000000e-02)	(5.33146434e-02 -1.95180023e-11 1.88158919e-33)	(4.04357195e+00 -4.82874783e-02 5.00000000e-02)
0.4            	p              	0.00000000e+00	(9.98412828e+00 -4.34587305e-01 5.00000000e-02)	1.53103000e+00	(0.00000000e+00 -4.34587305e-01 5.00000000e-02)
0.4            	U              	(3.67565312e-02 -1.00059834e-03 0.00000000e+00)	(4.99206414e-02 -4.34587305e-01 5.00000000e-02)	(6.09721899e-02 -1.13858501e-10 1.88157069e-33)	(4.04357195e+00 -4.82874783e-02 5.00000000e-02)
0.45           	p              	0.00000000e+00	(9.98412828e+00 -4.34587305e-01 5.00000000e-02)	1.53103000e+00	(0.00000000e+00 -4.34587305e-01 5.00000000e-02)
0.45           	U              	(4.13193048e-02 -8.06520740e-04 0.00000000e+00)	(4.99206414e-02 -4.34587305e-01 5.00000000e-02)	(6.86286250e-02 4.04390716e-11 1.88151877e-33)	(4.04357195e+00 -4.82874783e-02 5.00000000e-02)
0.5            	p              	0.00000000e+00	(9.98412828e+00 -4.34587305e-01 5.00000000e-02)	1.53103000e+00	(0.00000000e+00 -4.34587305e-01 5.00000000e-02)
0.5            	U              	(4.55777154e-02 -6.40586000e-04 0.00000000e+00)	(4.99206414e-02 -4.34587305e-01 5.00000000e-02)	(7.62837875e-02 5.15476385e-11 1.88151599e-33)	(4.04357195e+00 -4.82874783e-02 5.00000000e-02)
0.55           	p              	0.00000000e+00	(9.98412828e+00 -4.34587305e-01 5.00000000e-02)	1.53103000e+00	(0.00000000e+00 -4.34587305e-01 5.00000000e-02)
0.55           	U              	(4.95681516e-02 -4.98902072e-04 0.00000000e+00)	(4.99206414e-02 -4.34587305e-01 5.00000000e-02)	(8.39372071e-02 2.45370651e-11 1.88146862e-33)	(4.04357195e+00 -4.82874783e-02 5.00000000e-02)
0.6            	p              	0.00000000e+00	(9.98412828e+00 -4.34587305e-01 5.00000000e-02)	1.53103000e+00	(0.00000000e+00 -4.34587305e-01 5.00000000e-02)
0.6            	U              	(5.33233233e-02 -3.77295560e-04 0.00000000e+00)	(4.99206414e-02 -4.34587305e-01 5.00000000e-02)	(9.15884601e-02 -4.12545294e-11 1.88142322e-33)	(4.04357195e+00 -4.82874783e-02 5.00000000e-02)
0.65           	p              	0.00000000e+00	(9.98412828e+00 -4.34587305e-01 5.00000000e-02)	1.53103000e+00	(0.00000000e+00 -4.34587305e-01 5.00000000e-02)
0.65           	U              	(5.68693702e-02 -2.71950528e-04 0.00000000e+00)	(4.99206414e-02 -4.34587305e-01 5.00000000e-02)	(9.92371110e-02 -2.85623819e-11 1.88137976e-33)	(4.04357195e+00 -4.82874783e-02 5.00000000e-02)
0.7            	p              	0.00000000e+00	(9.98412828e+00 -4.34587305e-01 5.00000000e-02)	1.53103000e+00	(0.00000000e+00 -4.34587305e-01 5.00000000e-02)
0.7            	U              	(6.02288307e-02 -1.79469175e-04 0.00000000e+00)	(4.99206414e-02 -4.34587305e-01 5.00000000e-02)	(1.06882672e-01 1.31613684e-11 1.88133549e-33)	(4.04357195e+00 -4.82874783e-02 5.00000000e-02)
0.75           	p              	0.00000000e+00	(9.98412828e+00 -4.34587305e-01 5.00000000e-02)	1.53103000e+00	(0.00000000e+00 -4.34587305e-01 5.00000000e-02)
0.75           	U              	(6.34210557e-02 -9.65408111e-05 0.00000000e+00)	(4.99206414e-02 -4.34587305e-01 5.00000000e-02)	(1.14524604e-01 3.78341168e-11 1.88128820e-33)	(4.04357195e+00 -4.82874783e-02 5.00000000e-02)
0.8            	p              	0.00000000e+00	(9.98412828e+00 -4.34587305e-01 5.00000000e-02)	1.53103000e+00	(0.00000000e+00 -4.34587305e-01 5.00000000e-02)
0.8            	U              	(6.64612616e-02 -1.85402211e-05 0.00000000e+00)	(4.99206414e-02 -4.34587305e-01 5.00000000e-02)	(1.22162331e-01 3.01031782e-11 1.88123780e-33)	(4.04357195e+00 -4.82874783e-02 5.00000000e-02)
0.85           	p              	0.00000000e+00	(9.98412828e+00 -4.34587305e-01 5.00000000e-02)	1.53103000e+00	(0.00000000e+00 -4.34587305e-01 5.00000000e-02)
0.85           	U              	(6.93708087e-02 4.65779000e-05 0.00000000e+00)	(4.99206414e-02 -4.34587305e-01 5.00000000e-02)	(6.93708087e-02 4.65779000e-05 0.00000000e+00)	(4.99206414e-02 -4.34587305e-01 5.00000000e-02)
0.9            	p              	0.00000000e+00	(9.98412828e+00 -4.34587305e-01 5.00000000e-02)	1.53103000e+00	(0.00000000e+00 -4.34587305e-01 5.00000000e-02)
0.9            	U              	(7.21637262e-02 1.00293499e-04 0.00000000e+00)	(4.99206414e-02 -4.34587305e-01 5.00000000e-02)	(7.21637262e-02 1.00293499e-04 0.00000000e+00)	(4.99206414e-02 -4.34587305e-01 5.00000000e-02)
0.95           	p              	0.00000000e+00	(9.98412828e+00 -4.34587305e-01 5.00000000e-02)	1.53103000e+00	(0.00000000e+00 -4.34587305e-01 5.00000000e-02)
0.95           	U              	(7.48565261e-02 1.43878903e-04 0.00000000e+00)	(4.99206414e-02 -4.34587305e-01 5.00000000e-02)	(7.48565261e-02 1.43878903e-04 0.00000000e+00)	(4.99206414e-02 -4.34587305e-01 5.00000000e-02)
1              	p              	0.00000000e+00	(9.98412828e+00 -4.34587305e-01 5.00000000e-02)	1.53103000e+00	(0.00000000e+00 -4.34587305e-01 5.00000000e-02)
1              	U              	(7.74605295e-02 1.79499390e-04 0.00000000e+00)	(4.99206414e-02 -4.34587305e-01 5.00000000e-02)	(7.74605295e-02 1.79499390e-04 0.00000000e+00)	(4.99206414e-02 -4.34587305e-01 5.00000000e-02)
1.05           	p              	0.00000000e+00	(9.98412828e+00 -4.34587305e-01 5.00000000e-02)	1.53103000e+00	(0.00000000e+00 -4.34587305e-01 5.00000000e-02)
1.05           	U              	(7.99735780e-02 2.10687874e-04 0.00000000e+00)	(4.99206414e-02 -4.34587305e-01 5.00000000e-02)	(7.99735780e-02 2.10687874e-04 0.00000000e+00)	(4.99206414e-02 -4.34587305e-01 5.00000000e-02)
1.1            	p              	0.00000000e+00	(9.98412828e+00 -4.34587305e-01 5.00000000e-02)	1.53103000e+00	(0.00000000e+00 -4.34587305e-01 5.00000000e-02)
1.1            	U              	(8.24090778e-02 2.37879852e-04 0.00000000e+00)	(4.99206414e-02 -4.34587305e-01 5.00000000e-02)	(8.24090778e-02 2.37879852e-04 0.00000000e+00)	(4.99206414e-02 -4.34587305e-01 5.00000000e-02)
1.15           	p              	0.00000000e+00	(9.98412828e+00 -4.34587305e-01 5.00000000e-02)	1.53103000e+00	(0.00000000e+00 -4.34587305e-01 5.00000000e-02)
1.15           	U              	(8.47689153e-02 2.61698944e-04 0.00000000e+00)	(4.99206414e-02 -4.34587305e-01 5.00000000e-02)	(8.47689153e-02 2.61698944e-04 0.00000000e+00)	(4.99206414e-02 -4.34587305e-01 5.00000000e-02)
1.2            	p              	0.00000000e+00	(9.98412828e+00 -4.34587305e-01 5.00000000e-02)	1.53103000e+00	(0.00000000e+00 -4.34587305e-01 5.00000000e-02)
1.2            	U              	(8.70610173e-02 2.82798795e-04 0.00000000e+00)	(4.99206414e-02 -4.34587305e-01 5.00000000e-02)	(8.70610173e-02 2.82798795e-04 0.00000000e+00)	(4.99206414e-02 -4.34587305e-01 5.00000000e-02)
1.25           	p              	0.00000000e+00	(9.98412828e+00 -4.34587305e-01 5.00000000e-02)	1.53103000e+00	(0.00000000e+00 -4.34587305e-01 5.00000000e-02)
1.25           	U              	(8.92927269e-02 3.01439948e-04 0.00000000e+00)	(4.99206414e-02 -4.34587305e-01 5.00000000e-02)	(8.92927269e-02 3.01439948e-04 0.00000000e+00)	(4.99206414e-02 -4.34587305e-01 5.00000000e-02)
1.3            	p              	0.00000000e+00	(9.98412828e+00 -4.34587305e-01 5.00000000e-02)	1.53103000e+00	(0.00000000e+00 -4.34587305e-01 5.00000000e-02)
1.3            	U              	(9.14637933e-02 3.17979485e-04 0.00000000e+00)	(4.99206414e-02 -4.34587305e-01 5.00000000e-02)	(9.14637933e-02 3.17979485e-04 0.00000000e+00)	(4.99206414e-02 -4.34587305e-01 5.00000000e-02)
1.35           	p              	0.00000000e+00	(9.98412828e+00 -4.34587305e-01 5.00000000e-02)	1.53103000e+00	(0.00000000e+00 -4.34587305e-01 5.00000000e-02)
1.35           	U              	(9.35812083e-02 3.32686216e-04 0.00000000e+00)	(4.99206414e-02 -4.34587305e-01 5.00000000e-02)	(9.35812083e-02 3.32686216e-04 0.00000000e+00)	(4.99206414e-02 -4.34587305e-01 5.00000000e-02)
1.4            	p              	0.00000000e+00	(9.98412828e+00 -4.34587305e-01 5.00000000e-02)	1.53103000e+00	(0.00000000e+00 -4.34587305e-01 5.00000000e-02)
1.4            	U              	(9.56513343e-02 3.45722308e-04 0.00000000e+00)	(4.99206414e-02 -4.34587305e-01 5.00000000e-02)	(9.56513343e-02 3.45722308e-04 0.00000000e+00)	(4.99206414e-02 -4.34587305e-01 5.00000000e-02)
1.45           	p              	0.00000000e+00	(9.98412828e+00 -4.34587305e-01 5.00000000e-02)	1.53103000e+00	(0.00000000e+00 -4.34587305e-01 5.00000000e-02)
1.45           	U              	(9.76723907e-02 3.57309271e-04 0.00000000e+00)	(4.99206414e-02 -4.34587305e-01 5.00000000e-02)	(9.76723907e-02 3.57309271e-04 0.00000000e+00)	(4.99206414e-02 -4.34587305e-01 5.00000000e-02)
1.5            	p              	0.00000000e+00	(9.98412828e+00 -4.34587305e-01 5.00000000e-02)	1.53103000e+00	(0.00000000e+00 -4.34587305e-01 5.00000000e-02)
1.5            	U              	(9.96503164e-02 3.67635958e-04 0.00000000e+00)	(4.99206414e-02 -4.34587305e-01 5.00000000e-02)	(9.96503164e-02 3.67635958e-04 0.00000000e+00)	(4.99206414e-02 -4.34587305e-01 5.00000000e-02)
1.55           	p              	0.00000000e+00	(9.98412828e+00 -4.34587305e-01 5.00000000e-02)	1.53103000e+00	(0.00000000e+00 -4.34587305e-01 5.00000000e-02)
1.55           	U              	(1.01589814e-01 3.76800615e-04 0.00000000e+00)	(4.99206414e-02 -4.34587305e-01 5.00000000e-02)	(1.01589814e-01 3.76800615e-04 0.00000000e+00)	(4.99206414e-02 -4.34587305e-01 5.00000000e-02)
1.6            	p              	0.00000000e+00	(9.98412828e+00 -4.34587305e-01 5.00000000e-02)	1.53103000e+00	(0.00000000e+00 -4.34587305e-01 5.00000000e-02)
1.6            	U              	(1.03488664e-01 3.84948744e-04 0.00000000e+00)	(4.99206414e-02 -4.34587305e-01 5.00000000e-02)	(1.03488664e-01 3.84948744e-04 0.00000000e+00)	(4.99206414e-02 -4.34587305e-01 5.00000000e-02)
1.65           	p              	0.00000000e+00	(9.98412828e+00 -4.34587305e-01 5.00000000e-02)	1.53103000e+00	(0.00000000e+00 -4.34587305e-01 5.00000000e-02)
1.65           	U              	(1.05351982e-01 3.92217687e-04 0.00000000e+00)	(4.99206414e-02 -4.34587305e-01 5.00000000e-02)	(1.05351982e-01 3.92217687e-04 0.00000000e+00)	(4.99206414e-02 -4.34587305e-01 5.00000000e-02)
1.7            	p              	0.00000000e+00	(9.98412828e+00 -4.34587305e-01 5.00000000e-02)	1.53103000e+00	(0.00000000e+00 -4.34587305e-01 5.00000000e-02)
1.7            	U              	(1.07183477e-01 3.98655193e-04 0.00000000e+00)	(4.99206414e-02 -4.34587305e-01 5.00000000e-02)	(1.07183477e-01 3.98655193e-04 0.00000000e+00)	(4.99206414e-02 -4.34587305e-01 5.00000000e-02)
1.75           	p              	0.00000000e+00	(9.98412828e+00 -4.34587305e-01 5.00000000e-02)	1.53103000e+00	(0.00000000e+00 -4.34587305e-01 5.00000000e-02)
1.75           	U              	(1.08980528e-01 4.04367980e-04 0.00000000e+00)	(4.99206414e-02 -4.34587305e-01 5.00000000e-02)	(1.08980528e-01 4.04367980e-04 0.00000000e+00)	(4.99206414e-02 -4.34587305e-01 5.00000000e-02)
1.8            	p              	0.00000000e+00	(9.98412828e+00 -4.34587305e-01 5.00000000e-02)	1.53103000e+00	(0.00000000e+00 -4.34587305e-01 5.00000000e-02)
1.8            	U              	(1.10747733e-01 4.09460528e-04 0.00000000e+00)	(4.99206414e-02 -4.34587305e-01 5.00000000e-02)	(1.10747733e-01 4.09460528e-04 0.00000000e+00)	(4.99206414e-02 -4.34587305e-01 5.00000000e-02)
1.85           	p              	0.00000000e+00	(9.98412828e+00 -4.34587305e-01 5.00000000e-02)	1.53103000e+00	(0.00000000e+00 -4.34587305e-01 5.00000000e-02)
1.85           	U              	(1.12488002e-01 4.13945827e-04 0.00000000e+00)	(4.99206414e-02 -4.34587305e-01 5.00000000e-02)	(1.12488002e-01 4.13945827e-04 0.00000000e+00)	(4.99206414e-02 -4.34587305e-01 5.00000000e-02)
1.9            	p              	0.00000000e+00	(9.98412828e+00 -4.34587305e-01 5.00000000e-02)	1.53103000e+00	(0.00000000e+00 -4.34587305e-01 5.00000000e-02)
1.9            	U              	(1.14198540e-01 4.17905736e-04 0.00000000e+00)	(4.99206414e-02 -4.34587305e-01 5.00000000e-02)	(1.14198540e-01 4.17905736e-04 0.00000000e+00)	(4.99206414e-02 -4.34587305e-01 5.00000000e-02)
1.95           	p              	0.00000000e+00	(9.98412828e+00 -4.34587305e-01 5.00000000e-02)	1.53103000e+00	(0.00000000e+00 -4.34587305e-01 5.00000000e-02)
1.95           	U              	(1.15883577e-01 4.21424363e-04 0.00000000e+00)	(4.99206414e-02 -4.34587305e-01 5.00000000e-02)	(1.15883577e-01 4.21424363e-04 0.00000000e+00)	(4.99206414e-02 -4.34587305e-01 5.00000000e-02)
2              	p              	0.00000000e+00	(9.98412828e+00 -4.34587305e-01 5.00000000e-02)	1.53103000e+00	(0.00000000e+00 -4.34587305e-01 5.00000000e-02)
2              	U              	(1.17545364e-01 4.24490672e-04 0.00000000e+00)	(4.99206414e-02 -4.34587305e-01 5.00000000e-02)	(1.17545364e-01 4.24490672e-04 0.00000000e+00)	(4.99206414e-02 -4.34587305e-01 5.00000000e-02)
2.05           	p              	0.00000000e+00	(9.98412828e+00 -4.34587305e-01 5.00000000e-02)	1.53103000e+00	(0.00000000e+00 -4.34587305e-01 5.00000000e-02)
2.05           	U              	(1.19181084e-01 4.27170741e-04 0.00000000e+00)	(4.99206414e-02 -4.34587305e-01 5.00000000e-02)	(1.19181084e-01 4.27170741e-04 0.00000000e+00)	(4.99206414e-02 -4.34587305e-01 5.00000000e-02)
2.1            	p              	0.00000000e+00	(9.98412828e+00 -4.34587305e-01 5.00000000e-02)	1.53103000e+00	(0.00000000e+00 -4.34587305e-01 5.00000000e-02)
2.1            	U              	(1.20794700e-01 4.29535724e-04 0.00000000e+00)	(4.99206414e-02 -4.34587305e-01 5.00000000e-02)	(1.20794700e-01 4.29535724e-04 0.00000000e+00)	(4.99206414e-02 -4.34587305e-01 5.00000000e-02)
2.15           	p              	0.00000000e+00	(9.98412828e+00 -4.34587305e-01 5.00000000e-02)	1.53103000e+00	(0.00000000e+00 -4.34587305e-01 5.00000000e-02)
2.15           	U              	(1.22386955e-01 4.31577051e-04 0.00000000e+00)	(4.99206414e-02 -4.34587305e-01 5.00000000e-02)	(1.22386955e-01 4.31577051e-04 0.00000000e+00)	(4.99206414e-02 -4.34587305e-01 5.00000000e-02)
2.2            	p              	0.00000000e+00	(9.98412828e+00 -4.34587305e-01 5.00000000e-02)	1.53103000e+00	(0.00000000e+00 -4.34587305e-01 5.00000000e-02)
2.2            	U              	(1.23957890e-01 4.33316443e-04 0.00000000e+00)	(4.99206414e-02 -4.34587305e-01 5.00000000e-02)	(1.23957890e-01 4.33316443e-04 0.00000000e+00)	(4.99206414e-02 -4.34587305e-01 5.00000000e-02)
2.25           	p              	0.00000000e+00	(9.98412828e+00 -4.34587305e-01 5.00000000e-02)	1.53103000e+00	(0.00000000e+00 -4.34587305e-01 5.00000000e-02)
2.25           	U              	(1.25508664e-01 4.34800676e-04 0.00000000e+00)	(4.99206414e-02 -4.34587305e-01 5.00000000e-02)	(1.25508664e-01 4.34800676e-04 0.00000000e+00)	(4.99206414e-02 -4.34587305e-01 5.00000000e-02)
2.3            	p              	0.00000000e+00	(9.98412828e+00 -4.34587305e-01 5.00000000e-02)	1.53103000e+00	(0.00000000e+00 -4.34587305e-01 5.00000000e-02)
2.3            	U              	(1.27040044e-01 4.36053463e-04 0.00000000e+00)	(4.99206414e-02 -4.34587305e-01 5.00000000e-02)	(1.27040044e-01 4.36053463e-04 0.00000000e+00)	(4.99206414e-02 -4.34587305e-01 5.00000000e-02)
2.35           	p              	0.00000000e+00	(9.98412828e+00 -4.34587305e-01 5.00000000e-02)	1.53103000e+00	(0.00000000e+00 -4.34587305e-01 5.00000000e-02)
2.35           	U              	(1.28552656e-01 4.37093746e-04 0.00000000e+00)	(4.99206414e-02 -4.34587305e-01 5.00000000e-02)	(1.28552656e-01 4.37093746e-04 0.00000000e+00)	(4.99206414e-02 -4.34587305e-01 5.00000000e-02)
2.4            	p              	0.00000000e+00	(9.98412828e+00 -4.34587305e-01 5.00000000e-02)	1.53103000e+00	(0.00000000e+00 -4.34587305e-01 5.00000000e-02)
2.4            	U              	(1.30047159e-01 4.37941486e-04 0.00000000e+00)	(4.99206414e-02 -4.34587305e-01 5.00000000e-02)	(1.30047159e-01 4.37941486e-04 0.00000000e+00)	(4.99206414e-02 -4.34587305e-01 5.00000000e-02)
2.45           	p              	0.00000000e+00	(9.98412828e+00 -4.34587305e-01 5.00000000e-02)	1.53103000e+00	(0.00000000e+00 -4.34587305e-01 5.00000000e-02)
2.45           	U              	(1.31524163e-01 4.38614215e-04 0.00000000e+00)	(4.99206414e-02 -4.34587305e-01 5.00000000e-02)	(1.31524163e-01 4.38614215e-04 0.00000000e+00)	(4.99206414e-02 -4.34587305e-01 5.00000000e-02)
2.5            	p              	0.00000000e+00	(9.98412828e+00 -4.34587305e-01 5.00000000e-02)	1.53103000e+00	(0.00000000e+00 -4.34587305e-01 5.00000000e-02)
2.5            	U              	(1.32984236e-01 4.39127748e-04 0.00000000e+00)	(4.99206414e-02 -4.34587305e-01 5.00000000e-02)	(1.32984236e-01 4.39127748e-04 0.00000000e+00)	(4.99206414e-02 -4.34587305e-01 5.00000000e-02)
2.55           	p              	0.00000000e+00	(9.98412828e+00 -4.34587305e-01 5.00000000e-02)	1.53103000e+00	(0.00000000e+00 -4.34587305e-01 5.00000000e-02)
2.55           	U              	(1.34427915e-01 4.39496572e-04 0.00000000e+00)	(4.99206414e-02 -4.34587305e-01 5.00000000e-02)	(1.34427915e-01 4.39496572e-04 0.00000000e+00)	(4.99206414e-02 -4.34587305e-01 5.00000000e-02)
2.6            	p              	0.00000000e+00	(9.98412828e+00 -4.34587305e-01 5.00000000e-02)	1.53103000e+00	(0.00000000e+00 -4.34587305e-01 5.00000000e-02)
2.6            	U              	(1.35855701e-01 4.39733730e-04 0.00000000e+00)	(4.99206414e-02 -4.34587305e-01 5.00000000e-02)	(1.35855701e-01 4.39733730e-04 0.00000000e+00)	(4.99206414e-02 -4.34587305e-01 5.00000000e-02)
2.65           	p              	0.00000000e+00	(9.98412828e+00 -4.34587305e-01 5.00000000e-02)	1.53103000e+00	(0.00000000e+00 -4.34587305e-01 5.00000000e-02)
2.65           	U              	(1.37268067e-01 4.39850979e-04 0.00000000e+00)	(4.99206414e-02 -4.34587305e-01 5.00000000e-02)	(1.37268067e-01 4.39850979e-04 0.00000000e+00)	(4.99206414e-02 -4.34587305e-01 5.00000000e-02)
2.7            	p              	0.00000000e+00	(9.98412828e+00 -4.34587305e-01 5.00000000e-02)	1.53103000e+00	(0.00000000e+00 -4.34587305e-01 5.00000000e-02)
2.7            	U              	(1.38665460e-01 4.39858947e-04 0.00000000e+00)	(4.99206414e-02 -4.34587305e-01 5.00000000e-02)	(1.38665460e-01 4.39858947e-04 0.00000000e+00)	(4.99206414e-02 -4.34587305e-01 5.00000000e-02)
2.75           	p              	0.00000000e+00	(9.98412828e+00 -4.34587305e-01 5.00000000e-02)	1.53103000e+00	(0.00000000e+00 -4.34587305e-01 5.00000000e-02)
2.75           	U              	(1.40048300e-01 4.39767236e-04 0.00000000e+00)	(4.99206414e-02 -4.34587305e-01 5.00000000e-02)	(1.40048300e-01 4.39767236e-04 0.00000000e+00)	(4.99206414e-02 -4.34587305e-01 5.00000000e-02)
2.8            	p              	0.00000000e+00	(9.98412828e+00 -4.34587305e-01 5.00000000e-02)	1.53103000e+00	(0.00000000e+00 -4.34587305e-01 5.00000000e-02)
2.8            	U              	(1.41416985e-01 4.39584492e-04 0.00000000e+00)	(4.99206414e-02 -4.34587305e-01 5.00000000e-02)	(1.41416985e-01 4.39584492e-04 0.00000000e+00)	(4.99206414e-02 -4.34587305e-01 5.00000000e-02)
2.85           	p              	0.00000000e+00	(9.98412828e+00 -4.34587305e-01 5.00000000e-02)	1.53103000e+00	(0.00000000e+00 -4.34587305e-01 5.00000000e-02)
2.85           	U              	(1.42771892e-01 4.39318507e-04 0.00000000e+00)	(4.99206414e-02 -4.34587305e-01 5.00000000e-02)	(1.42771892e-01 4.39318507e-04 0.00000000e+00)	(4.99206414e-02 -4.34587305e-01 5.00000000e-02)
2.9            	p              	0.00000000e+00	(9.98412828e+00 -4.34587305e-01 5.00000000e-02)	1.53103000e+00	(0.00000000e+00 -4.34587305e-01 5.00000000e-02)
2.9            	U              	(1.44113378e-01 4.38976299e-04 0.00000000e+00)	(4.99206414e-02 -4.34587305e-01 5.00000000e-02)	(1.44113378e-01 4.38976299e-04 0.00000000e+00)	(4.99206414e-02 -4.34587305e-01 5.00000000e-02)
2.95           	p              	0.00000000e+00	(9.98412828e+00 -4.34587305e-01 5.00000000e-02)	1.53103000e+00	(0.00000000e+00 -4.34587305e-01 5.00000000e-02)
2.95           	U              	(1.45441781e-01 4.38564167e-04 0.00000000e+00)	(4.99206414e-02 -4.34587305e-01 5.00000000e-02)	(1.45441781e-01 4.38564167e-04 0.00000000e+00)	(4.99206414e-02 -4.34587305e-01 5.00000000e-02)
3              	p              	0.00000000e+00	(9.98412828e+00 -4.34587305e-01 5.00000000e-02)	1.53103000e+00	(0.00000000e+00 -4.34587305e-01 5.00000000e-02)
3              	U              	(1.46757424e-01 4.38087766e-04 0.00000000e+00)	(4.99206414e-02 -4.34587305e-01 5.00000000e-02)	(1.46757424e-01 4.38087766e-04 0.00000000e+00)	(4.99206414e-02 -4.34587305e-01 5.00000000e-02)
3.05           	p              	0.00000000e+00	(9.98412828e+00 -4.34587305e-01 5.00000000e-02)	1.53103000e+00	(0.00000000e+00 -4.34587305e-01 5.00000000e-02)
3.05           	U              	(1.48060611e-01 4.37552173e-04 0.00000000e+00)	(4.99206414e-02 -4.34587305e-01 5.00000000e-02)	(1.48060611e-01 4.37552173e-04 0.00000000e+00)	(4.99206414e-02 -4.34587305e-01 5.00000000e-02)
3.1            	p              	0.00000000e+00	(9.98412828e+00 -4.34587305e-01 5.00000000e-02)	1.53103000e+00	(0.00000000e+00 -4.34587305e-01 5.00000000e-02)
3.1            	U              	(1.49351636e-01 4.36961974e-04 0.00000000e+00)	(4.99206414e-02 -4.34587305e-01 5.00000000e-02)	(1.49351636e-01 4.36961974e-04 0.00000000e+00)	(4.99206414e-02 -4.34587305e-01 5.00000000e-02)
3.15           	p              	0.00000000e+00	(9.98412828e+00 -4.34587305e-01 5.00000000e-02)	1.53103000e+00	(0.00000000e+00 -4.34587305e-01 5.00000000e-02)
3.15           	U              	(1.50630774e-01 4.36321249e-04 0.00000000e+00)	(4.99206414e-02 -4.34587305e-01 5.00000000e-02)	(1.50630774e-01 4.36321249e-04 0.00000000e+00)	(4.99206414e-02 -4.34587305e-01 5.00000000e-02)
3.2            	p              	0.00000000e+00	(9.98412828e+00 -4.34587305e-01 5.00000000e-02)	1.53103000e+00	(0.00000000e+00 -4.34587305e-01 5.00000000e-02)
3.2            	U              	(1.51898291e-01 4.35633633e-04 0.00000000e+00)	(4.99206414e-02 -4.34587305e-01 5.00000000e-02)	(1.51898291e-01 4.35633633e-04 0.00000000e+00)	(4.99206414e-02 -4.34587305e-01 5.00000000e-02)
3.25           	p              	0.00000000e+00	(9.98412828e+00 -4.34587305e-01 5.00000000e-02)	1.53103000e+00	(0.00000000e+00 -4.34587305e-01 5.00000000e-02)
3.25           	U              	(1.53154440e-01 4.34902465e-04 0.00000000e+00)	(4.99206414e-02 -4.34587305e-01 5.00000000e-02)	(1.53154440e-01 4.34902465e-04 0.00000000e+00)	(4.99206414e-02 -4.34587305e-01 5.00000000e-02)
3.3            	p              	0.00000000e+00	(9.98412828e+00 -4.34587305e-01 5.00000000e-02)	1.53103000e+00	(0.00000000e+00 -4.34587305e-01 5.00000000e-02)
3.3            	U              	(1.54399462e-01 4.34130715e-04 0.00000000e+00)	(4.99206414e-02 -4.34587305e-01 5.00000000e-02)	(1.54399462e-01 4.34130715e-04 0.00000000e+00)	(4.99206414e-02 -4.34587305e-01 5.00000000e-02)
3.35           	p              	0.00000000e+00	(9.98412828e+00 -4.34587305e-01 5.00000000e-02)	1.53103000e+00	(0.00000000e+00 -4.34587305e-01 5.00000000e-02)
3.35           	U              	(1.55633587e-01 4.33321054e-04 0.00000000e+00)	(4.99206414e-02 -4.34587305e-01 5.00000000e-02)	(1.55633587e-01 4.33321054e-04 0.00000000e+00)	(4.99206414e-02 -4.34587305e-01 5.00000000e-02)
3.4            	p              	0.00000000e+00	(9.98412828e+00 -4.34587305e-01 5.00000000e-02)	1.53103000e+00	(0.00000000e+00 -4.34587305e-01 5.00000000e-02)
3.4            	U              	(1.56857038e-01 4.32475922e-04 0.00000000e+00)	(4.99206414e-02 -4.34587305e-01 5.00000000e-02)	(1.56857038e-01 4.32475922e-04 0.00000000e+00)	(4.99206414e-02 -4.34587305e-01 5.00000000e-02)
3.45           	p              	0.00000000e+00	(9.98412828e+00 -4.34587305e-01 5.00000000e-02)	1.53103000e+00	(0.00000000e+00 -4.34587305e-01 5.00000000e-02)
3.45           	U              	(1.58070025e-01 4.31597508e-04 0.00000000e+00)	(4.99206414e-02 -4.34587305e-01 5.00000000e-02)	(1.58070025e-01 4.31597508e-04 0.00000000e+00)	(4.99206414e-02 -4.34587305e-01 5.00000000e-02)
3.5            	p              	0.00000000e+00	(9.98412828e+00 -4.34587305e-01 5.00000000e-02)	1.53103000e+00	(0.00000000e+00 -4.34587305e-01 5.00000000e-02)
3.5            	U              	(1.59272751e-01 4.30687810e-04 0.00000000e+00)	(4.99206414e-02 -4.34587305e-01 5.00000000e-02)	(1.59272751e-01 4.30687810e-04 0.00000000e+00)	(4.99206414e-02 -4.34587305e-01 5.00000000e-02)
3.55           	p              	0.00000000e+00	(9.98412828e+00 -4.34587305e-01 5.00000000e-02)	1.53103000e+00	(0.00000000e+00 -4.34587305e-01 5.00000000e-02)
3.55           	U              	(1.60465411e-01 4.29748644e-04 0.00000000e+00)	(4.99206414e-02 -4.34587305e-01 5.00000000e-02)	(1.60465411e-01 4.29748644e-04 0.00000000e+00)	(4.99206414e-02 -4.34587305e-01 5.00000000e-02)
3.6            	p              	0.00000000e+00	(9.98412828e+00 -4.34587305e-01 5.00000000e-02)	1.53103000e+00	(0.00000000e+00 -4.34587305e-01 5.00000000e-02)
3.6            	U              	(1.61648191e-01 4.28781645e-04 0.00000000e+00)	(4.99206414e-02 -4.34587305e-01 5.00000000e-02)	(1.61648191e-01 4.28781645e-04 0.00000000e+00)	(4.99206414e-02 -4.34587305e-01 5.00000000e-02)
3.65           	p              	0.00000000e+00	(9.98412828e+00 -4.34587305e-01 5.00000000e-02)	1.53103000e+00	(0.00000000e+00 -4.34587305e-01 5.00000000e-02)
3.65           	U              	(1.62821271e-01 4.27788378e-04 0.00000000e+00)	(4.99206414e-02 -4.34587305e-01 5.00000000e-02)	(1.62821271e-01 4.27788378e-04 0.00000000e+00)	(4.99206414e-02 -4.34587305e-01 5.00000000e-02)
3.7            	p              	0.00000000e+00	(9.98412828e+00 -4.34587305e-01 5.00000000e-02)	1.53103000e+00	(0.00000000e+00 -4.34587305e-01 5.00000000e-02)
3.7            	U              	(1.63984823e-01 4.26770221e-04 0.00000000e+00)	(4.99206414e-02 -4.34587305e-01 5.00000000e-02)	(1.63984823e-01 4.26770221e-04 0.00000000e+00)	(4.99206414e-02 -4.34587305e-01 5.00000000e-02)
3.75           	p              	0.00000000e+00	(9.98412828e+00 -4.34587305e-01 5.00000000e-02)	1.53103000e+00	(0.00000000e+00 -4.34587305e-01 5.00000000e-02)
3.75           	U              	(1.65139013e-01 4.25728478e-04 0.00000000e+00)	(4.99206414e-02 -4.34587305e-01 5.00000000e-02)	(1.65139013e-01 4.25728478e-04 0.00000000e+00)	(4.99206414e-02 -4.34587305e-01 5.00000000e-02)
3.8            	p              	0.00000000e+00	(9.98412828e+00 -4.34587305e-01 5.00000000e-02)	1.53103000e+00	(0.00000000e+00 -4.34587305e-01 5.00000000e-02)
3.8            	U              	(1.66284000e-01 4.24664369e-04 0.00000000e+00)	(4.99206414e-02 -4.34587305e-01 5.00000000e-02)	(1.66284000e-01 4.24664369e-04 0.00000000e+00)	(4.99206414e-02 -4.34587305e-01 5.00000000e-02)
3.85           	p              	0.00000000e+00	(9.98412828e+00 -4.34587305e-01 5.00000000e-02)	1.53103000e+00	(0.00000000e+00 -4.34587305e-01 5.00000000e-02)
3.85           	U              	(1.67419937e-01 4.23579025e-04 0.00000000e+00)	(4.99206414e-02 -4.34587305e-01 5.00000000e-02)	(1.67419937e-01 4.23579025e-04 0.00000000e+00)	(4.99206414e-02 -4.34587305e-01 5.00000000e-02)
3.9            	p              	0.00000000e+00	(9.98412828e+00 -4.34587305e-01 5.00000000e-02)	1.53103000e+00	(0.00000000e+00 -4.34587305e-01 5.00000000e-02)
3.9            	U              	(1.68546973e-01 4.22473504e-04 0.00000000e+00)	(4.99206414e-02 -4.34587305e-01 5.00000000e-02)	(1.68546973e-01 4.22473504e-04 0.00000000e+00)	(4.99206414e-02 -4.34587305e-01 5.00000000e-02)
3.95           	p              	0.00000000e+00	(9.98412828e+00 -4.34587305e-01 5.00000000e-02)	1.53103000e+00	(0.00000000e+00 -4.34587305e-01 5.00000000e-02)