# Region type : patch inlet
#     Faces  : 10
#     Area   : 9.65749567e-02
#          Time	sum(phi)
           0.05	-6.98355014e-04
            0.1	-1.41492027e-03
           0.15	-2.11570693e-03
            0.2	-2.80497774e-03
           0.25	-3.48410764e-03
            0.3	-4.15347743e-03
           0.35	-4.81411085e-03
            0.4	-5.46640149e-03
           0.45	-6.11094636e-03
            0.5	-6.74807338e-03
           0.55	-7.37818081e-03
            0.6	-8.00173866e-03
           0.65	-8.61899789e-03
            0.7	-9.23022173e-03
           0.75	-9.83566711e-03
            0.8	-1.04355645e-02
           0.85	-1.10301412e-02
            0.9	-1.16197083e-02
           0.95	-1.22040810e-02
              1	-1.27837146e-02
           1.05	-1.33584995e-02
            1.1	-1.39289669e-02
           1.15	-1.44947982e-02
            1.2	-1.50563241e-02
           1.25	-1.56138389e-02
            1.3	-1.61670195e-02
           1.35	-1.67161783e-02
            1.4	-1.72616002e-02
           1.45	-1.78029452e-02
            1.5	-1.83405265e-02
           1.55	-1.88745809e-02
            1.6	-1.94047757e-02
           1.65	-1.99314193e-02
            1.7	-2.04547125e-02
           1.75	-2.09743319e-02
            1.8	-2.14905853e-02
           1.85	-2.20036345e-02
            1.9	-2.25131717e-02
           1.95	-2.30195044e-02
              2	-2.35227569e-02
           2.05	-2.40226407e-02
            2.1	-2.45194629e-02
           2.15	-2.50132350e-02
            2.2	-2.55039178e-02
           2.25	-2.59915947e-02
            2.3	-2.64762983e-02
           2.35	-2.69580556e-02
            2.4	-2.74369014e-02
           2.45	-2.79128681e-02
            2.5	-2.83859867e-02
           2.55	-2.88562877e-02
            2.6	-2.93238004e-02
           2.65	-2.97885532e-02
            2.7	-3.02505737e-02
           2.75	-3.07098888e-02
            2.8	-3.11665246e-02
           2.85	-3.16205063e-02
            2.9	-3.20718588e-02
           2.95	-3.25206059e-02
              3	-3.29667713e-02
           3.05	-3.34103776e-02
            3.1	-3.38514473e-02
           3.15	-3.42900021e-02
            3.2	-3.47260632e-02
           3.25	-3.51596514e-02
            3.3	-3.55907871e-02
           3.35	-3.60194901e-02
            3.4	-3.64457800e-02
           3.45	-3.68696757e-02
            3.5	-3.72911959e-02
           3.55	-3.77103590e-02
            3.6	-3.81271827e-02
           3.65	-3.85416850e-02
            3.7	-3.89538829e-02
           3.75	-3.93637934e-02
            3.8	-3.97714332e-02
           3.85	-4.01768188e-02
            3.9	-4.05799662e-02
           3.95	-4.09808911e-02
              4	-4.13796093e-02
           4.05	-4.17761361e-02
            4.1	-4.21704865e-02
           4.15	-4.25626753e-02
            4.2	-4.29527173e-02
           4.25	-4.33406269e-02
            4.3	-4.37264183e-02
           4.35	-4.41101054e-02
            4.4	-4.44917022e-02
           4.45	-4.48712222e-02
            4.5	-4.52486791e-02
           4.55	-4.56240859e-02
            4.6	-4.59974558e-02
           4.65	-4.63688018e-02
            4.7	-4.67381368e-02
           4.75	-4.71054732e-02
            4.8	-4.74708237e-02
           4.85	-4.78342006e-02
            4.9	-4.81956160e-02
           4.95	-4.85550822e-02
              5	-4.89126109e-02
           5.05	-4.92682141e-02
            5.1	-4.96219033e-02
           5.15	-4.99736903e-02
            5.2	-5.03235865e-02
           5.25	-5.06716031e-02
            5.3	-5.10177514e-02
           5.35	-5.13620426e-02
            5.4	-5.17044877e-02
           5.45	-5.20450975e-02
            5.5	-5.23838829e-02
           5.55	-5.27208546e-02
            5.6	-5.30560233e-02
           5.65	-5.33893993e-02
            5.7	-5.37209933e-02
           5.75	-5.40508154e-02
            5.8	-5.43788760e-02
           5.85	-5.47051853e-02
            5.9	-5.50297532e-02
           5.95	-5.53525899e-02
              6	-5.56737053e-02
           6.05	-5.59931091e-02
            6.1	-5.63108113e-02
           6.15	-5.66268213e-02
            6.2	-5.69411490e-02
           6.25	-5.72538038e-02
            6.3	-5.75647951e-02
           6.35	-5.78741325e-02
            6.4	-5.81818252e-02
           6.45	-5.84878825e-02
            6.5	-5.87923136e-02
           6.55	-5.90951277e-02
            6.6	-5.93963337e-02
           6.65	-5.96959407e-02
            6.7	-5.99939577e-02
           6.75	-6.02903936e-02
            6.8	-6.05852571e-02
           6.85	-6.08785570e-02
            6.9	-6.11703020e-02
           6.95	-6.14605008e-02
              7	-6.17491619e-02
           7.05	-6.20362939e-02
            7.1	-6.23219052e-02
           7.15	-6.26060043e-02
            7.2	-6.28885995e-02
           7.25	-6.31696992e-02
            7.3	-6.34493116e-02
           7.35	-6.37274448e-02
            7.4	-6.40041071e-02
           7.45	-6.42793066e-02
            7.5	-6.45530512e-02
           7.55	-6.48253490e-02
            7.6	-6.50962080e-02
           7.65	-6.53656360e-02
            7.7	-6.56336410e-02
           7.75	-6.59002306e-02
            7.8	-6.61654127e-02
           7.85	-6.64291950e-02
            7.9	-6.66915851e-02
           7.95	-6.69525906e-02
              8	-6.72122192e-02
           8.05	-6.74704783e-02
            8.1	-6.77273754e-02
           8.15	-6.79829180e-02
            8.2	-6.82371134e-02
           8.25	-6.84899691e-02
            8.3	-6.87414924e-02
           8.35	-6.89916904e-02
            8.4	-6.92405704e-02
           8.45	-6.94881396e-02
            8.5	-6.97344051e-02
           8.55	-6.99793740e-02
            8.6	-7.02230534e-02
           8.65	-7.04654502e-02
            8.7	-7.07065715e-02
           8.75	-7.09464242e-02
            8.8	-7.11850152e-02
           8.85	-7.14223513e-02
            8.9	-7.16584393e-02
           8.95	-7.18932861e-02
              9	-7.21268983e-02
           9.05	-7.23592827e-02
            9.1	-7.25904459e-02
           9.15	-7.28203945e-02
            9.2	-7.30491352e-02
           9.25	-7.32766745e-02
            9.3	-7.35030189e-02
           9.35	-7.37281748e-02
            9.4	-7.39521488e-02
           9.45	-7.41749471e-02
            9.5	-7.43965763e-02
           9.55	-7.46170425e-02
            9.6	-7.48363522e-02
           9.65	-7.50545115e-02
            9.7	-7.52715268e-02
           9.75	-7.54874041e-02
            9.8	-7.57021496e-02
           9.85	-7.59157695e-02
            9.9	-7.61282699e-02
           9.95	-7.63396567e-02
             10	-7.65499361e-02
          10.05	-7.67591141e-02
           10.1	-7.69671964e-02
          10.15	-7.71741892e-02
           10.2	-7.73800982e-02
          10.25	-7.75849293e-02
           10.3	-7.77886883e-02
          10.35	-7.79913810e-02
           10.4	-7.81930132e-02
          10.45	-7.83935906e-02
           10.5	-7.85931189e-02
          10.55	-7.87916037e-02
           10.6	-7.89890506e-02
          10.65	-7.91854653e-02
           10.7	-7.93808534e-02
          10.75	-7.95752203e-02
           10.8	-7.97685715e-02
          10.85	-7.99609126e-02
           10.9	-8.01522490e-02
          10.95	-8.03425860e-02
             11	-8.05319291e-02
          11.05	-8.07202836e-02
           11.1	-8.09076549e-02
          11.15	-8.10940482e-02
           11.2	-8.12794688e-02
          11.25	-8.14639219e-02
           11.3	-8.16474128e-02
          11.35	-8.18299465e-02
           11.4	-8.20115283e-02
          11.45	-8.21921633e-02
           11.5	-8.23718565e-02
          11.55	-8.25506131e-02
           11.6	-8.27284380e-02
          11.65	-8.29053363e-02
           11.7	-8.30813129e-02
          11.75	-8.32563727e-02
           11.8	-8.34305208e-02
          11.85	-8.36037620e-02
           11.9	-8.37761012e-02
          11.95	-8.39475432e-02
             12	-8.41180928e-02
          12.05	-8.42877548e-02
           12.1	-8.44565340e-02
          12.15	-8.46244351e-02
           12.2	-8.47914628e-02
          12.25	-8.49576218e-02
           12.3	-8.51229168e-02
          12.35	-8.52873523e-02
           12.4	-8.54509330e-02
          12.45	-8.56136635e-02
           12.5	-8.57755483e-02
          12.55	-8.59365920e-02
           12.6	-8.60967990e-02
          12.65	-8.62561738e-02
           12.7	-8.64147209e-02
          12.75	-8.65724448e-02
           12.8	-8.67293497e-02
          12.85	-8.68854402e-02
           12.9	-8.70407205e-02
          12.95	-8.71951949e-02
             13	-8.73488679e-02
          13.05	-8.75017436e-02
           13.1	-8.76538264e-02
          13.15	-8.78051205e-02
           13.2	-8.79556300e-02
          13.25	-8.81053592e-02
           13.3	-8.82543122e-02
          13.35	-8.84024933e-02
           13.4	-8.85499064e-02
          13.45	-8.86965557e-02
           13.5	-8.88424453e-02
          13.55	-8.89875793e-02
           13.6	-8.91319616e-02
          13.65	-8.92755962e-02
           13.7	-8.94184873e-02
          13.75	-8.95606386e-02
           13.8	-8.97020542e-02
          13.85	-8.98427380e-02
           13.9	-8.99826938e-02
          13.95	-9.01219256e-02
             14	-9.02604373e-02
          14.05	-9.03982325e-02
           14.1	-9.05353153e-02
          14.15	-9.06716893e-02
           14.2	-9.08073583e-02
          14.25	-9.09423261e-02
           14.3	-9.10765963e-02
          14.35	-9.12101728e-02
           14.4	-9.13430592e-02
          14.45	-9.14752592e-02
           14.5	-9.16067764e-02
          14.55	-9.17376144e-02
           14.6	-9.18677769e-02
          14.65	-9.19972674e-02
           14.7	-9.21260896e-02
          14.75	-9.22542469e-02
           14.8	-9.23817428e-02
          14.85	-9.25085810e-02
           14.9	-9.26347649e-02
          14.95	-9.27602979e-02
             15	-9.28851836e-02
          15.05	-9.30094253e-02
           15.1	-9.31330265e-02
          15.15	-9.32559905e-02
           15.2	-9.33783207e-02
          15.25	-9.35000206e-02
           15.3	-9.36210933e-02
          15.35	-9.37415424e-02
           15.4	-9.38613710e-02
          15.45	-9.39805824e-02
           15.5	-9.40991799e-02
          15.55	-9.42171668e-02
           15.6	-9.43345463e-02
          15.65	-9.44513216e-02
           15.7	-9.45674959e-02
          15.75	-9.46830724e-02
           15.8	-9.47980542e-02
          15.85	-9.49124445e-02
           15.9	-9.50262464e-02
          15.95	-9.51394630e-02
             16	-9.52520974e-02
          16.05	-9.53641527e-02
           16.1	-9.54756320e-02
          16.15	-9.55865382e-02
           16.2	-9.56968745e-02
          16.25	-9.58066438e-02
           16.3	-9.59158491e-02
          16.35	-9.60244933e-02
           16.4	-9.61325796e-02
          16.45	-9.62401107e-02
           16.5	-9.63470896e-02
          16.55	-9.64535193e-02
           16.6	-9.65594025e-02
          16.65	-9.66647423e-02
           16.7	-9.67695415e-02
          16.75	-9.68738028e-02
           16.8	-9.69775292e-02
          16.85	-9.70807235e-02
           16.9	-9.71833884e-02
          16.95	-9.72855268e-02
             17	-9.73871414e-02
          17.05	-9.74882350e-02
           17.1	-9.75888102e-02
          17.15	-9.76888700e-02
           17.2	-9.77884168e-02
          17.25	-9.78874536e-02
           17.3	-9.79859828e-02
          17.35	-9.80840073e-02
           17.4	-9.81815296e-02
          17.45	-9.82785523e-02
           17.5	-9.83750782e-02
          17.55	-9.84711098e-02
           17.6	-9.85666498e-02
          17.65	-9.86617006e-02
           17.7	-9.87562648e-02
          17.75	-9.88503451e-02
           17.8	-9.89439439e-02
          17.85	-9.90370638e-02
           17.9	-9.91297073e-02
          17.95	-9.92218769e-02
             18	-9.93135751e-02
          18.05	-9.94048042e-02
           18.1	-9.94955669e-02
          18.15	-9.95858655e-02
           18.2	-9.96757025e-02
          18.25	-9.97650803e-02
           18.3	-9.98540012e-02
          18.35	-9.99424677e-02
           18.4	-1.00030482e-01
          18.45	-1.00118047e-01
           18.5	-1.00205165e-01
          18.55	-1.00291837e-01
           18.6	-1.00378067e-01
          18.65	-1.00463856e-01
           18.7	-1.00549208e-01
          18.75	-1.00634124e-01
           18.8	-1.00718606e-01
          18.85	-1.00802657e-01
           18.9	-1.00886279e-01
          18.95	-1.00969474e-01
             19	-1.01052245e-01
          19.05	-1.01134594e-01
           19.1	-1.01216522e-01
          19.15	-1.01298033e-01
           19.2	-1.01379128e-01
          19.25	-1.01459809e-01
           19.3	-1.01540079e-01
          19.35	-1.01619940e-01
           19.4	-1.01699393e-01
          19.45	-1.01778442e-01
           19.5	-1.01857088e-01
          19.55	-1.01935333e-01
           19.6	-1.02013179e-01
          19.65	-1.02090629e-01
           19.7	-1.02167684e-01
          19.75	-1.02244347e-01
           19.8	-1.02320619e-01
          19.85	-1.02396503e-01
           19.9	-1.02472001e-01
          19.95	-1.02547114e-01
             20	-1.02621845e-01
