# Forces       
# CofR         : (0.00000000e+00 0.00000000e+00 0.00000000e+00)
# Time         forces(pressure viscous porous) moment(pressure viscous porous)
5.00000000e-02	((6.47130407e+01 -3.17566680e-06 -4.30665752e-20) (1.93449286e+00 -9.18205013e-09 -3.56653171e-22) (0.00000000e+00 0.00000000e+00 0.00000000e+00)) ((1.98171797e-20 -2.78092532e-19 -8.63124676e-14) (-1.48403139e-19 7.41618376e-22 -3.62570900e-09) (0.00000000e+00 0.00000000e+00 0.00000000e+00))
1.00000000e-01	((-2.86868155e+01 7.97345349e-06 3.30648518e-20) (1.44848907e+00 4.08988970e-08 2.27972206e-22) (0.00000000e+00 0.00000000e+00 0.00000000e+00)) ((7.43726631e-20 1.22249885e-19 4.45563725e-14) (-1.12667536e-19 -1.03089198e-22 -2.44599242e-09) (0.00000000e+00 0.00000000e+00 0.00000000e+00))
1.50000000e-01	((1.40141886e+00 -4.72695600e-06 1.12098703e-20) (1.14722408e+00 2.22643794e-08 -1.81808617e-22) (0.00000000e+00 0.00000000e+00 0.00000000e+00)) ((2.90925345e-20 -6.29766458e-21 -2.27544220e-14) (-6.62654764e-20 1.86082182e-22 -6.52953859e-09) (0.00000000e+00 0.00000000e+00 0.00000000e+00))
2.00000000e-01	((9.06152461e-01 1.64260825e-06 1.16935647e-20) (9.62045094e-01 2.35866495e-08 -1.04750868e-22) (0.00000000e+00 0.00000000e+00 0.00000000e+00)) ((1.88097983e-20 -3.96115586e-21 7.01636015e-14) (-2.56525312e-20 7.81738873e-23 -4.31815301e-09) (0.00000000e+00 0.00000000e+00 0.00000000e+00))
2.50000000e-01	((9.70915798e-01 -7.53765045e-07 1.20536907e-20) (8.37844316e-01 1.64392955e-08 -8.93093699e-23) (0.00000000e+00 0.00000000e+00 0.00000000e+00)) ((1.37780689e-20 -4.25714274e-21 -7.00817984e-14) (-2.08438867e-20 6.24510541e-23 -3.88404871e-09) (0.00000000e+00 0.00000000e+00 0.00000000e+00))
3.00000000e-01	((9.51885631e-01 6.72651070e-08 1.20833198e-20) (7.48740170e-01 1.32326679e-08 -6.63244838e-23) (0.00000000e+00 0.00000000e+00 0.00000000e+00)) ((9.89157188e-21 -4.17936780e-21 2.71981602e-14) (-1.76267711e-20 4.61509101e-23 -2.99002634e-09) (0.00000000e+00 0.00000000e+00 0.00000000e+00))
3.50000000e-01	((8.99859853e-01 8.95142433e-08 1.19770465e-20) (6.82043465e-01 1.18866293e-08 -4.53636225e-23) (0.00000000e+00 0.00000000e+00 0.00000000e+00)) ((1.02654756e-20 -3.96213004e-21 3.28424896e-14) (-1.57944666e-20 3.14325197e-23 -2.28129108e-09) (0.00000000e+00 0.00000000e+00 0.00000000e+00))
4.00000000e-01	((8.54369677e-01 -1.05565990e-07 1.18846391e-20) (6.30351971e-01 9.71418432e-09 -3.36873196e-23) (0.00000000e+00 0.00000000e+00 0.00000000e+00)) ((1.33568966e-20 -3.79362731e-21 -1.63098430e-14) (-1.55669141e-20 2.44712466e-23 -1.89944039e-09) (0.00000000e+00 0.00000000e+00 0.00000000e+00))
4.50000000e-01	((8.19645688e-01 -3.52872107e-08 1.17913571e-20) (5.89127768e-01 8.17050826e-09 -2.40329966e-23) (0.00000000e+00 0.00000000e+00 0.00000000e+00)) ((1.77477800e-20 -3.66754021e-21 -6.76866569e-15) (-1.57730483e-20 1.83018621e-23 -1.62209238e-09) (0.00000000e+00 0.00000000e+00 0.00000000e+00))
5.00000000e-01	((7.95263714e-01 3.27860251e-08 1.17184482e-20) (5.55424182e-01 7.57546212e-09 -2.14810854e-23) (0.00000000e+00 0.00000000e+00 0.00000000e+00)) ((2.25325387e-20 -3.60146594e-21 -1.07963904e-14) (-1.59771736e-20 1.83512081e-23 -1.46410142e-09) (0.00000000e+00 0.00000000e+00 0.00000000e+00))
5.50000000e-01	((7.79584372e-01 -7.90189996e-08 1.16512896e-20) (5.27247962e-01 6.47790330e-09 -2.11918641e-23) (0.00000000e+00 0.00000000e+00 0.00000000e+00)) ((2.72737034e-20 -3.57227336e-21 1.23660576e-14) (-1.64663906e-20 2.00522940e-23 -1.24547426e-09) (0.00000000e+00 0.00000000e+00 0.00000000e+00))
6.00000000e-01	((7.69688508e-01 -5.41565099e-08 1.15890998e-20) (5.03255302e-01 5.62229540e-09 -2.26761417e-23) (0.00000000e+00 0.00000000e+00 0.00000000e+00)) ((3.20255331e-20 -3.56839114e-21 8.36516186e-15) (-1.77673922e-20 2.30730546e-23 -1.06289395e-09) (0.00000000e+00 0.00000000e+00 0.00000000e+00))
6.50000000e-01	((7.64560311e-01 1.63215068e-08 1.15326491e-20) (4.82517071e-01 5.54545973e-09 -2.55486473e-23) (0.00000000e+00 0.00000000e+00 0.00000000e+00)) ((3.72082126e-20 -3.58627354e-21 2.27918812e-14) (-1.86221668e-20 2.71329776e-23 -1.02066136e-09) (0.00000000e+00 0.00000000e+00 0.00000000e+00))
7.00000000e-01	((7.62878664e-01 -2.02669915e-07 1.14744909e-20) (4.64374044e-01 4.49713421e-09 -2.87920752e-23) (0.00000000e+00 0.00000000e+00 0.00000000e+00)) ((4.24022314e-20 -3.61422971e-21 -3.40547902e-16) (-1.95961856e-20 3.13057813e-23 -1.12616076e-09) (0.00000000e+00 0.00000000e+00 0.00000000e+00))
7.50000000e-01	((7.63222170e-01 -1.72040911e-07 1.14051000e-20) (4.48346447e-01 3.79893225e-09 -3.21651969e-23) (0.00000000e+00 0.00000000e+00 0.00000000e+00)) ((4.71998795e-20 -3.64238987e-21 6.49393056e-15) (-2.06001967e-20 3.54090535e-23 -1.30412645e-09) (0.00000000e+00 0.00000000e+00 0.00000000e+00))
8.00000000e-01	((7.66440193e-01 -1.00894739e-07 1.13489786e-20) (4.34072083e-01 3.46376509e-09 -3.63467486e-23) (0.00000000e+00 0.00000000e+00 0.00000000e+00)) ((5.22463945e-20 -3.68826358e-21 5.45210036e-15) (-2.14018385e-20 4.01577038e-23 -1.35732675e-09) (0.00000000e+00 0.00000000e+00 0.00000000e+00))
8.50000000e-01	((7.71555098e-01 -8.34659465e-08 1.12934808e-20) (4.21285820e-01 3.50472462e-09 -4.05941343e-23) (0.00000000e+00 0.00000000e+00 0.00000000e+00)) ((5.71060850e-20 -3.74344085e-21 6.56480350e-15) (-2.20747410e-20 4.48454067e-23 -1.38076151e-09) (0.00000000e+00 0.00000000e+00 0.00000000e+00))
9.00000000e-01	((7.78832864e-01 -1.50988103e-07 1.12485705e-20) (4.09777051e-01 3.33018806e-09 -4.46755251e-23) (0.00000000e+00 0.00000000e+00 0.00000000e+00)) ((6.21597347e-20 -3.81008111e-21 7.20327999e-15) (-2.25145502e-20 4.92670469e-23 -1.43310817e-09) (0.00000000e+00 0.00000000e+00 0.00000000e+00))
9.50000000e-01	((7.86111663e-01 -1.40181922e-07 1.11860389e-20) (3.99358883e-01 3.31337397e-09 -4.81146296e-23) (0.00000000e+00 0.00000000e+00 0.00000000e+00)) ((6.70930767e-20 -3.86553276e-21 5.24946297e-15) (-2.28667134e-20 5.29711152e-23 -1.48984721e-09) (0.00000000e+00 0.00000000e+00 0.00000000e+00))
1.00000000e+00	((7.94847610e-01 -1.58008334e-07 1.11301017e-20) (3.89885765e-01 3.31170831e-09 -5.19373090e-23) (0.00000000e+00 0.00000000e+00 0.00000000e+00)) ((7.19561403e-20 -3.93044514e-21 6.97474055e-15) (-2.31958565e-20 5.69904376e-23 -1.54914336e-09) (0.00000000e+00 0.00000000e+00 0.00000000e+00))
1.05000000e+00	((8.04991022e-01 -1.63191254e-07 1.10786769e-20) (3.81241420e-01 3.39131394e-09 -5.56014968e-23) (0.00000000e+00 0.00000000e+00 0.00000000e+00)) ((7.68387043e-20 -4.00190520e-21 6.32764782e-15) (-2.34832963e-20 6.07987943e-23 -1.60442470e-09) (0.00000000e+00 0.00000000e+00 0.00000000e+00))
1.10000000e+00	((8.15727226e-01 -1.74594079e-07 1.10266328e-20) (3.73322911e-01 3.47624110e-09 -5.91936352e-23) (0.00000000e+00 0.00000000e+00 0.00000000e+00)) ((8.15789095e-20 -4.07506674e-21 6.89014546e-15) (-2.37497824e-20 6.44906643e-23 -1.65002357e-09) (0.00000000e+00 0.00000000e+00 0.00000000e+00))
1.15000000e+00	((8.26784786e-01 -5.02322605e-08 1.09677617e-20) (3.66044630e-01 4.47967551e-09 -6.23722138e-23) (0.00000000e+00 0.00000000e+00 0.00000000e+00)) ((8.62446003e-20 -4.14386518e-21 3.84780641e-15) (-2.40220965e-20 6.77361099e-23 -1.72070171e-09) (0.00000000e+00 0.00000000e+00 0.00000000e+00))
1.20000000e+00	((8.38757665e-01 -9.37873735e-08 1.09160430e-20) (3.59335199e-01 4.59383410e-09 -6.57638279e-23) (0.00000000e+00 0.00000000e+00 0.00000000e+00)) ((9.08581004e-20 -4.22037271e-21 1.18421982e-15) (-2.41790398e-20 7.11596267e-23 -1.63018635e-09) (0.00000000e+00 0.00000000e+00 0.00000000e+00))
1.25000000e+00	((8.50745878e-01 -6.86656954e-08 1.08610181e-20) (3.53136228e-01 4.65125135e-09 -6.89156816e-23) (0.00000000e+00 0.00000000e+00 0.00000000e+00)) ((9.55477734e-20 -4.29476904e-21 8.76469036e-16) (-2.43573411e-20 7.43187941e-23 -1.50325237e-09) (0.00000000e+00 0.00000000e+00 0.00000000e+00))
1.30000000e+00	((8.63524618e-01 -8.06184411e-08 1.08108334e-20) (3.47398469e-01 4.62185301e-09 -7.18978714e-23) (0.00000000e+00 0.00000000e+00 0.00000000e+00)) ((1.00214564e-19 -4.37255460e-21 9.83479791e-16) (-2.45121802e-20 7.72877660e-23 -1.38064857e-09) (0.00000000e+00 0.00000000e+00 0.00000000e+00))
1.35000000e+00	((8.75912041e-01 -7.54815913e-08 1.07525829e-20) (3.42071833e-01 4.61686389e-09 -7.47807193e-23) (0.00000000e+00 0.00000000e+00 0.00000000e+00)) ((1.04629490e-19 -4.44543272e-21 1.48958536e-15) (-2.46487142e-20 8.01406361e-23 -1.26623812e-09) (0.00000000e+00 0.00000000e+00 0.00000000e+00))
1.40000000e+00	((8.89225003e-01 -8.71387187e-08 1.07019370e-20) (3.37123280e-01 4.54655537e-09 -7.75451020e-23) (0.00000000e+00 0.00000000e+00 0.00000000e+00)) ((1.09133287e-19 -4.52341336e-21 1.47917702e-15) (-2.47655270e-20 8.28626694e-23 -1.16713162e-09) (0.00000000e+00 0.00000000e+00 0.00000000e+00))
1.45000000e+00	((9.01624641e-01 -9.22804408e-08 1.06435311e-20) (3.32511444e-01 4.45854358e-09 -8.02249043e-23) (0.00000000e+00 0.00000000e+00 0.00000000e+00)) ((1.13575392e-19 -4.59477272e-21 1.67227343e-15) (-2.48930800e-20 8.54902535e-23 -1.08011848e-09) (0.00000000e+00 0.00000000e+00 0.00000000e+00))
1.50000000e+00	((9.14604718e-01 -8.80053307e-08 1.05882592e-20) (3.28209340e-01 4.43794723e-09 -8.27351506e-23) (0.00000000e+00 0.00000000e+00 0.00000000e+00)) ((1.17970161e-19 -4.66772796e-21 1.80671450e-15) (-2.50171525e-20 8.79420043e-23 -1.00276414e-09) (0.00000000e+00 0.00000000e+00 0.00000000e+00))
1.55000000e+00	((9.27692063e-01 -1.03789447e-07 1.05370342e-20) (3.24191919e-01 4.34866049e-09 -8.53715934e-23) (0.00000000e+00 0.00000000e+00 0.00000000e+00)) ((1.22287372e-19 -4.74366032e-21 2.22304813e-15) (-2.51334548e-20 9.05131082e-23 -9.36463448e-10) (0.00000000e+00 0.00000000e+00 0.00000000e+00))
1.60000000e+00	((9.40404583e-01 -1.02411097e-07 1.04825197e-20) (3.20435119e-01 4.28310733e-09 -8.78016991e-23) (0.00000000e+00 0.00000000e+00 0.00000000e+00)) ((1.26495444e-19 -4.81586515e-21 2.41061511e-15) (-2.52442907e-20 9.28749073e-23 -8.74827205e-10) (0.00000000e+00 0.00000000e+00 0.00000000e+00))
1.65000000e+00	((9.52967259e-01 -1.09726684e-07 1.04278171e-20) (3.16917682e-01 4.20441071e-09 -9.01384315e-23) (0.00000000e+00 0.00000000e+00 0.00000000e+00)) ((1.30628624e-19 -4.88657244e-21 2.72844898e-15) (-2.53538815e-20 9.51404732e-23 -8.17571885e-10) (0.00000000e+00 0.00000000e+00 0.00000000e+00))
1.70000000e+00	((9.65389397e-01 -1.13925727e-07 1.03728844e-20) (3.13620928e-01 4.12779227e-09 -9.23776446e-23) (0.00000000e+00 0.00000000e+00 0.00000000e+00)) ((1.34688650e-19 -4.95636617e-21 3.02519511e-15) (-2.54682962e-20 9.73064317e-23 -7.66620078e-10) (0.00000000e+00 0.00000000e+00 0.00000000e+00))
1.75000000e+00	((9.77700447e-01 -1.16749688e-07 1.03186802e-20) (3.10529159e-01 4.07068385e-09 -9.45453967e-23) (0.00000000e+00 0.00000000e+00 0.00000000e+00)) ((1.38673831e-19 -5.02494055e-21 3.24545078e-15) (-2.55808123e-20 9.93993516e-23 -7.22636867e-10) (0.00000000e+00 0.00000000e+00 0.00000000e+00))
1.80000000e+00	((9.89696260e-01 -1.26572898e-07 1.02652250e-20) (3.07627086e-01 3.98631270e-09 -9.66376542e-23) (0.00000000e+00 0.00000000e+00 0.00000000e+00)) ((1.42545257e-19 -5.09149419e-21 3.72759549e-15) (-2.56958574e-20 1.01415882e-22 -6.86493105e-10) (0.00000000e+00 0.00000000e+00 0.00000000e+00))
1.85000000e+00	((1.00196673e+00 -1.24118854e-07 1.02145129e-20) (3.04905631e-01 3.95324320e-09 -9.86244987e-23) (0.00000000e+00 0.00000000e+00 0.00000000e+00)) ((1.46370989e-19 -5.15872984e-21 3.75849525e-15) (-2.58138389e-20 1.03327086e-22 -6.55170692e-10) (0.00000000e+00 0.00000000e+00 0.00000000e+00))
1.90000000e+00	((1.01228077e+00 -1.38221217e-07 1.01535089e-20) (3.02339857e-01 3.86404446e-09 -1.00645655e-22) (0.00000000e+00 0.00000000e+00 0.00000000e+00)) ((1.50002092e-19 -5.21557982e-21 4.48545281e-15) (-2.58980788e-20 1.05272126e-22 -6.30655334e-10) (0.00000000e+00 0.00000000e+00 0.00000000e+00))
1.95000000e+00	((1.02374599e+00 -1.51618850e-07 1.01022167e-20) (2.99927516e-01 3.71757588e-09 -1.02654669e-22) (0.00000000e+00 0.00000000e+00 0.00000000e+00)) ((1.53528919e-19 -5.28117601e-21 4.84605845e-15) (-2.60536615e-20 1.07205274e-22 -6.17379767e-10) (0.00000000e+00 0.00000000e+00 0.00000000e+00))
2.00000000e+00	((1.03439799e+00 -1.27881808e-07 1.00476067e-20) (2.97656606e-01 3.76943872e-09 -1.04473892e-22) (0.00000000e+00 0.00000000e+00 0.00000000e+00)) ((1.56960496e-19 -5.34067906e-21 4.77872950e-15) (-2.61819019e-20 1.08950616e-22 -5.96848565e-10) (0.00000000e+00 0.00000000e+00 0.00000000e+00))
2.05000000e+00	((1.04470060e+00 -1.54800554e-07 9.99362273e-21) (2.95517092e-01 3.70486702e-09 -1.06225903e-22) (0.00000000e+00 0.00000000e+00 0.00000000e+00)) ((1.60268686e-19 -5.39756654e-21 5.30272441e-15) (-2.63111187e-20 1.10630091e-22 -5.85958395e-10) (0.00000000e+00 0.00000000e+00 0.00000000e+00))
2.10000000e+00	((1.05493770e+00 -1.52978389e-07 9.94301512e-21) (2.93502597e-01 3.66248402e-09 -1.07931965e-22) (0.00000000e+00 0.00000000e+00 0.00000000e+00)) ((1.63473393e-19 -5.45565542e-21 5.63817656e-15) (-2.64407024e-20 1.12265096e-22 -5.76314944e-10) (0.00000000e+00 0.00000000e+00 0.00000000e+00))
2.15000000e+00	((1.06456075e+00 -1.58834908e-07 9.88986903e-21) (2.91603563e-01 3.62529916e-09 -1.09549901e-22) (0.00000000e+00 0.00000000e+00 0.00000000e+00)) ((1.66543053e-19 -5.50944189e-21 6.07554371e-15) (-2.65755377e-20 1.13813954e-22 -5.71933370e-10) (0.00000000e+00 0.00000000e+00 0.00000000e+00))
2.20000000e+00	((1.07289299e+00 -1.87111331e-07 9.83033640e-21) (2.89804799e-01 3.43378278e-09 -1.11112951e-22) (0.00000000e+00 0.00000000e+00 0.00000000e+00)) ((1.69384885e-19 -5.55616961e-21 6.67250543e-15) (-2.67031985e-20 1.15309883e-22 -5.79562540e-10) (0.00000000e+00 0.00000000e+00 0.00000000e+00))
2.25000000e+00	((1.08148992e+00 -1.49213812e-07 9.77628182e-21) (2.88105593e-01 3.52406163e-09 -1.12610081e-22) (0.00000000e+00 0.00000000e+00 0.00000000e+00)) ((1.72132743e-19 -5.60422104e-21 6.65721818e-15) (-2.68419443e-20 1.16741981e-22 -5.78660562e-10) (0.00000000e+00 0.00000000e+00 0.00000000e+00))
2.30000000e+00	((1.08984880e+00 -1.79697167e-07 9.72381265e-21) (2.86496924e-01 3.49208444e-09 -1.14106670e-22) (0.00000000e+00 0.00000000e+00 0.00000000e+00)) ((1.74838635e-19 -5.65200734e-21 7.21178759e-15) (-2.69661845e-20 1.18175020e-22 -5.85316793e-10) (0.00000000e+00 0.00000000e+00 0.00000000e+00))
2.35000000e+00	((1.09771856e+00 -1.77165087e-07 9.67356391e-21) (2.84973682e-01 3.49220702e-09 -1.15577394e-22) (0.00000000e+00 0.00000000e+00 0.00000000e+00)) ((1.77312841e-19 -5.69916514e-21 7.56274383e-15) (-2.70895812e-20 1.19583843e-22 -5.91467358e-10) (0.00000000e+00 0.00000000e+00 0.00000000e+00))
2.40000000e+00	((1.10500234e+00 -1.86292613e-07 9.62119084e-21) (2.83531060e-01 3.46035435e-09 -1.16887531e-22) (0.00000000e+00 0.00000000e+00 0.00000000e+00)) ((1.79679636e-19 -5.74182614e-21 7.74098667e-15) (-2.72158530e-20 1.20834897e-22 -6.03608281e-10) (0.00000000e+00 0.00000000e+00 0.00000000e+00))
2.45000000e+00	((1.11214441e+00 -1.87562110e-07 9.57161513e-21) (2.82165940e-01 3.45634593e-09 -1.18130081e-22) (0.00000000e+00 0.00000000e+00 0.00000000e+00)) ((1.81934829e-19 -5.78409052e-21 8.20242312e-15) (-2.73462661e-20 1.22020545e-22 -6.19772953e-10) (0.00000000e+00 0.00000000e+00 0.00000000e+00))
2.50000000e+00	((1.11768173e+00 -2.01000591e-07 9.51270096e-21) (2.80863632e-01 3.39744816e-09 -1.19304459e-22) (0.00000000e+00 0.00000000e+00 0.00000000e+00)) ((1.83964862e-19 -5.81789554e-21 8.66451008e-15) (-2.74728544e-20 1.23140314e-22 -6.39445654e-10) (0.00000000e+00 0.00000000e+00 0.00000000e+00))
2.55000000e+00	((1.12367469e+00 -1.98016866e-07 9.46050110e-21) (2.79624696e-01 3.40174525e-09 -1.20417714e-22) (0.00000000e+00 0.00000000e+00 0.00000000e+00)) ((1.85973606e-19 -5.85469366e-21 9.60115234e-15) (-2.76064739e-20 1.24201278e-22 -6.62597845e-10) (0.00000000e+00 0.00000000e+00 0.00000000e+00))
2.60000000e+00	((1.12885121e+00 -2.05207769e-07 9.40831713e-21) (2.78442887e-01 3.40453859e-09 -1.21461461e-22) (0.00000000e+00 0.00000000e+00 0.00000000e+00)) ((1.87716076e-19 -5.88661876e-21 8.63361032e-15) (-2.77292991e-20 1.25195029e-22 -6.89516607e-10) (0.00000000e+00 0.00000000e+00 0.00000000e+00))
2.65000000e+00	((1.13399453e+00 -2.18214888e-07 9.35864298e-21) (2.77316887e-01 3.34952719e-09 -1.22452612e-22) (0.00000000e+00 0.00000000e+00 0.00000000e+00)) ((1.89374703e-19 -5.91851941e-21 9.85843351e-15) (-2.78608600e-20 1.26138552e-22 -7.21865944e-10) (0.00000000e+00 0.00000000e+00 0.00000000e+00))
2.70000000e+00	((1.13808611e+00 -2.20815518e-07 9.30438244e-21) (2.76238143e-01 3.29710057e-09 -1.23411220e-22) (0.00000000e+00 0.00000000e+00 0.00000000e+00)) ((1.90898999e-19 -5.94617490e-21 1.05021243e-14) (-2.79872203e-20 1.27051439e-22 -7.54971356e-10) (0.00000000e+00 0.00000000e+00 0.00000000e+00))
2.75000000e+00	((1.14221630e+00 -2.23486355e-07 9.25432315e-21) (2.75205710e-01 3.27188321e-09 -1.24312000e-22) (0.00000000e+00 0.00000000e+00 0.00000000e+00)) ((1.92241158e-19 -5.97482868e-21 1.03276762e-14) (-2.81145548e-20 1.27908710e-22 -7.92027862e-10) (0.00000000e+00 0.00000000e+00 0.00000000e+00))
2.80000000e+00	((1.14627994e+00 -2.40798258e-07 9.20603522e-21) (2.74219980e-01 3.17056902e-09 -1.25078820e-22) (0.00000000e+00 0.00000000e+00 0.00000000e+00)) ((1.93651217e-19 -6.00188899e-21 1.05965584e-14) (-2.82378692e-20 1.28634424e-22 -8.35998879e-10) (0.00000000e+00 0.00000000e+00 0.00000000e+00))
2.85000000e+00	((1.14859503e+00 -2.31915211e-07 9.14989812e-21) (2.73266394e-01 3.18370291e-09 -1.25846183e-22) (0.00000000e+00 0.00000000e+00 0.00000000e+00)) ((1.94724964e-19 -6.02182077e-21 1.16152747e-14) (-2.83434049e-20 1.29363066e-22 -8.78115948e-10) (0.00000000e+00 0.00000000e+00 0.00000000e+00))
2.90000000e+00	((1.15131756e+00 -1.84682978e-07 9.09942582e-21) (2.72345128e-01 3.16364584e-09 -1.26498204e-22) (0.00000000e+00 0.00000000e+00 0.00000000e+00)) ((1.95753332e-19 -6.04274249e-21 1.07996294e-14) (-2.84471151e-20 1.29978428e-22 -8.30446151e-10) (0.00000000e+00 0.00000000e+00 0.00000000e+00))
2.95000000e+00	((1.15385369e+00 -1.87818255e-07 9.05155231e-21) (2.71456225e-01 3.12668485e-09 -1.27093245e-22) (0.00000000e+00 0.00000000e+00 0.00000000e+00)) ((1.96691856e-19 -6.06301898e-21 1.10364192e-14) (-2.85536984e-20 1.30538943e-22 -7.67994423e-10) (0.00000000e+00 0.00000000e+00 0.00000000e+00))
3.00000000e+00	((1.15543590e+00 -1.89723640e-07 8.99850416e-21) (2.70592559e-01 3.08714505e-09 -1.27615989e-22) (0.00000000e+00 0.00000000e+00 0.00000000e+00)) ((1.97479253e-19 -6.07827083e-21 1.14271656e-14) (-2.86570663e-20 1.31029317e-22 -7.08223771e-10) (0.00000000e+00 0.00000000e+00 0.00000000e+00))
3.05000000e+00	((1.15659708e+00 -1.95293732e-07 8.94561335e-21) (2.69752722e-01 3.01993610e-09 -1.28093580e-22) (0.00000000e+00 0.00000000e+00 0.00000000e+00)) ((1.98169682e-19 -6.09189112e-21 1.13223233e-14) (-2.87758702e-20 1.31476354e-22 -6.56875656e-10) (0.00000000e+00 0.00000000e+00 0.00000000e+00))
3.10000000e+00	((1.15838882e+00 -2.13963529e-07 8.90141089e-21) (2.68946181e-01 2.84721815e-09 -1.28530996e-22) (0.00000000e+00 0.00000000e+00 0.00000000e+00)) ((1.98925242e-19 -6.11049792e-21 1.36895703e-14) (-2.88630890e-20 1.31884774e-22 -6.21400102e-10) (0.00000000e+00 0.00000000e+00 0.00000000e+00))
3.15000000e+00	((1.15895530e+00 -1.98414462e-07 8.85149318e-21) (2.68164243e-01 2.81144776e-09 -1.28859081e-22) (0.00000000e+00 0.00000000e+00 0.00000000e+00)) ((1.99430023e-19 -6.11927076e-21 1.26931885e-14) (-2.89374334e-20 1.32186487e-22 -5.95669297e-10) (0.00000000e+00 0.00000000e+00 0.00000000e+00))
3.20000000e+00	((1.15967394e+00 -2.06687896e-07 8.80577304e-21) (2.67405272e-01 2.75301071e-09 -1.29240059e-22) (0.00000000e+00 0.00000000e+00 0.00000000e+00)) ((1.99873005e-19 -6.13252590e-21 1.27690827e-14) (-2.90025471e-20 1.32541503e-22 -5.73281655e-10) (0.00000000e+00 0.00000000e+00 0.00000000e+00))
3.25000000e+00	((1.15884714e+00 -2.30197875e-07 8.74952711e-21) (2.66661181e-01 2.56938719e-09 -1.29461602e-22) (0.00000000e+00 0.00000000e+00 0.00000000e+00)) ((2.00185481e-19 -6.13567434e-21 1.39656082e-14) (-2.91145638e-20 1.32739596e-22 -5.59154934e-10) (0.00000000e+00 0.00000000e+00 0.00000000e+00))
3.30000000e+00	((1.15907602e+00 -2.13994598e-07 8.70434275e-21) (2.65938316e-01 2.50372092e-09 -1.29699540e-22) (0.00000000e+00 0.00000000e+00 0.00000000e+00)) ((2.00573893e-19 -6.14692283e-21 1.43110350e-14) (-2.91601150e-20 1.32954870e-22 -5.46788554e-10) (0.00000000e+00 0.00000000e+00 0.00000000e+00))
3.35000000e+00	((1.15842516e+00 -2.31832962e-07 8.65400972e-21) (2.65228187e-01 2.36958591e-09 -1.29841907e-22) (0.00000000e+00 0.00000000e+00 0.00000000e+00)) ((2.00775191e-19 -6.15202295e-21 1.43420432e-14) (-2.92623237e-20 1.33076420e-22 -5.41036707e-10) (0.00000000e+00 0.00000000e+00 0.00000000e+00))
3.40000000e+00	((1.15803158e+00 -2.34326151e-07 8.60773767e-21) (2.64531488e-01 2.24000255e-09 -1.29921530e-22) (0.00000000e+00 0.00000000e+00 0.00000000e+00)) ((2.00972110e-19 -6.15852628e-21 1.58519031e-14) (-2.93540907e-20 1.33136636e-22 -5.41282824e-10) (0.00000000e+00 0.00000000e+00 0.00000000e+00))
3.45000000e+00	((1.15665141e+00 -2.35236378e-07 8.55857834e-21) (2.63841417e-01 2.15501902e-09 -1.29958251e-22) (0.00000000e+00 0.00000000e+00 0.00000000e+00)) ((2.00968991e-19 -6.15811776e-21 1.41977359e-14) (-2.94686666e-20 1.33155616e-22 -5.45799406e-10) (0.00000000e+00 0.00000000e+00 0.00000000e+00))
3.50000000e+00	((1.15557807e+00 -2.39903483e-07 8.51195487e-21) (2.63160569e-01 2.08004537e-09 -1.29966727e-22) (0.00000000e+00 0.00000000e+00 0.00000000e+00)) ((2.01017259e-19 -6.16066403e-21 1.54247275e-14) (-2.95533730e-20 1.33147531e-22 -5.53105750e-10) (0.00000000e+00 0.00000000e+00 0.00000000e+00))
3.55000000e+00	((1.15426216e+00 -2.41449766e-07 8.46582778e-21) (2.62488825e-01 2.02220873e-09 -1.29972648e-22) (0.00000000e+00 0.00000000e+00 0.00000000e+00)) ((2.01026397e-19 -6.16310070e-21 1.54685292e-14) (-2.96328905e-20 1.33137958e-22 -5.60561061e-10) (0.00000000e+00 0.00000000e+00 0.00000000e+00))
3.60000000e+00	((1.15263421e+00 -2.60141756e-07 8.41917493e-21) (2.61824540e-01 1.87026455e-09 -1.29891249e-22) (0.00000000e+00 0.00000000e+00 0.00000000e+00)) ((2.00958268e-19 -6.16246234e-21 1.58052824e-14) (-2.97112649e-20 1.33042729e-22 -5.74017070e-10) (0.00000000e+00 0.00000000e+00 0.00000000e+00))
3.65000000e+00	((1.15151367e+00 -2.44425538e-07 8.37839261e-21) (2.61172322e-01 1.83954309e-09 -1.29837058e-22) (0.00000000e+00 0.00000000e+00 0.00000000e+00)) ((2.00917406e-19 -6.16678516e-21 1.62144603e-14) (-2.97863431e-20 1.32975296e-22 -5.84081533e-10) (0.00000000e+00 0.00000000e+00 0.00000000e+00))
3.70000000e+00	((1.14906080e+00 -2.60874254e-07 8.32752902e-21) (2.60522958e-01 1.75171883e-09 -1.29666660e-22) (0.00000000e+00 0.00000000e+00 0.00000000e+00)) ((2.00738838e-19 -6.16201598e-21 1.72596312e-14) (-2.98539490e-20 1.32793307e-22 -5.99225856e-10) (0.00000000e+00 0.00000000e+00 0.00000000e+00))
3.75000000e+00	((1.14621884e+00 4.43151917e-07 8.27591175e-21) (2.59871839e-01 6.34670556e-09 -1.29456732e-22) (0.00000000e+00 0.00000000e+00 0.00000000e+00)) ((2.00481953e-19 -6.15414368e-21 1.06062078e-14) (-2.99163388e-20 1.32574169e-22 -4.25693480e-10) (0.00000000e+00 0.00000000e+00 0.00000000e+00))
3.80000000e+00	((1.14422376e+00 -3.27930279e-07 8.23204576e-21) (2.59226145e-01 5.46229131e-09 -1.29279397e-22) (0.00000000e+00 0.00000000e+00 0.00000000e+00)) ((2.00329966e-19 -6.15303944e-21 1.37399857e-14) (-2.99813092e-20 1.32386274e-22 -2.94716775e-10) (0.00000000e+00 0.00000000e+00 0.00000000e+00))
3.85000000e+00	((1.14193655e+00 -1.37919940e-07 8.18715989e-21) (2.58586317e-01 4.60504867e-09 -1.29039382e-22) (0.00000000e+00 0.00000000e+00 0.00000000e+00)) ((2.00110390e-19 -6.14913309e-21 1.34614542e-14) (-3.00435207e-20 1.32137677e-22 -1.20658867e-10) (0.00000000e+00 0.00000000e+00 0.00000000e+00))
3.90000000e+00	((1.13953845e+00 -1.34092266e-07 8.14230510e-21) (2.57951981e-01 3.89782915e-09 -1.28774918e-22) (0.00000000e+00 0.00000000e+00 0.00000000e+00)) ((1.99866857e-19 -6.14453540e-21 1.40691495e-14) (-3.01027710e-20 1.31865232e-22 2.18874831e-11) (0.00000000e+00 0.00000000e+00 0.00000000e+00))
3.95000000e+00	((1.13678839e+00 -1.24623963e-07 8.09406386e-21) (2.57320568e-01 3.37918923e-09 -1.28483836e-22) (0.00000000e+00 0.00000000e+00 0.00000000e+00)) ((1.99604611e-19 -6.13806931e-21 1.38223851e-14) (-3.01592823e-20 1.31566845e-22 1.36831647e-10) (0.00000000e+00 0.00000000e+00 0.00000000e+00))
4.00000000e+00	((1.13487801e+00 -1.42436816e-07 8.05692334e-21) (2.56698940e-01 2.87221997e-09 -1.28209070e-22) (0.00000000e+00 0.00000000e+00 0.00000000e+00)) ((1.99380695e-19 -6.13663153e-21 1.48314520e-14) (-3.02133416e-20 1.31285047e-22 2.18471321e-10) (0.00000000e+00 0.00000000e+00 0.00000000e+00))
4.05000000e+00	((1.13194378e+00 -1.28710189e-07 8.01364377e-21) (2.56080522e-01 2.53470327e-09 -1.27861668e-22) (0.00000000e+00 0.00000000e+00 0.00000000e+00)) ((1.99008470e-19 -6.12787202e-21 1.46275136e-14) (-3.02600621e-20 1.30931636e-22 2.82203053e-10) (0.00000000e+00 0.00000000e+00 0.00000000e+00))
4.10000000e+00	((1.12903446e+00 -1.25443745e-07 7.96715710e-21) (2.55463964e-01 2.28188051e-09 -1.27516903e-22) (0.00000000e+00 0.00000000e+00 0.00000000e+00)) ((1.98700823e-19 -6.12029211e-21 1.47217308e-14) (-3.03098713e-20 1.30581279e-22 3.37022762e-10) (0.00000000e+00 0.00000000e+00 0.00000000e+00))
4.15000000e+00	((1.12649547e+00 -1.33132525e-07 7.92466570e-21) (2.54852540e-01 2.01181688e-09 -1.27179319e-22) (0.00000000e+00 0.00000000e+00 0.00000000e+00)) ((1.98415763e-19 -6.11523116e-21 1.48907579e-14) (-3.03554768e-20 1.30238401e-22 3.82994619e-10) (0.00000000e+00 0.00000000e+00 0.00000000e+00))
4.20000000e+00	((1.12378397e+00 -1.31451351e-07 7.88189864e-21) (2.54246035e-01 1.78588435e-09 -1.26797154e-22) (0.00000000e+00 0.00000000e+00 0.00000000e+00)) ((1.98129796e-19 -6.10875970e-21 1.55532054e-14) (-3.04072836e-20 1.29851605e-22 4.21767274e-10) (0.00000000e+00 0.00000000e+00 0.00000000e+00))
4.25000000e+00	((1.12059054e+00 -1.36573871e-07 7.83797781e-21) (2.53640768e-01 1.54158836e-09 -1.26390004e-22) (0.00000000e+00 0.00000000e+00 0.00000000e+00)) ((1.97753986e-19 -6.09831012e-21 1.48047807e-14) (-3.04543849e-20 1.29440723e-22 4.51327482e-10) (0.00000000e+00 0.00000000e+00 0.00000000e+00))
4.30000000e+00	((1.11780570e+00 -1.36703323e-07 7.79540463e-21) (2.53039962e-01 1.31558238e-09 -1.25985534e-22) (0.00000000e+00 0.00000000e+00 0.00000000e+00)) ((1.97453710e-19 -6.09038178e-21 1.50732291e-14) (-3.05202295e-20 1.29032448e-22 4.78869795e-10) (0.00000000e+00 0.00000000e+00 0.00000000e+00))
4.35000000e+00	((1.11525371e+00 -1.36319297e-07 7.75576906e-21) (2.52446036e-01 1.11775717e-09 -1.25590474e-22) (0.00000000e+00 0.00000000e+00 0.00000000e+00)) ((1.97153998e-19 -6.08404115e-21 1.57689617e-14) (-3.05793391e-20 1.28633893e-22 5.04237704e-10) (0.00000000e+00 0.00000000e+00 0.00000000e+00))
4.40000000e+00	((1.11251939e+00 -1.30854843e-07 7.71493074e-21) (2.51857944e-01 9.77695414e-10 -1.25177860e-22) (0.00000000e+00 0.00000000e+00 0.00000000e+00)) ((1.96836049e-19 -6.07635121e-21 1.56347374e-14) (-3.06365322e-20 1.28218254e-22 5.34384781e-10) (0.00000000e+00 0.00000000e+00 0.00000000e+00))
4.45000000e+00	((1.10990847e+00 -1.40405462e-07 7.67554547e-21) (2.51276131e-01 7.85433356e-10 -1.24758352e-22) (0.00000000e+00 0.00000000e+00 0.00000000e+00)) ((1.96531562e-19 -6.06919735e-21 1.57753585e-14) (-3.06933963e-20 1.27796030e-22 5.62169540e-10) (0.00000000e+00 0.00000000e+00 0.00000000e+00))
4.50000000e+00	((1.10721673e+00 -1.28336792e-07 7.63557792e-21) (2.50699863e-01 6.75049461e-10 -1.24340669e-22) (0.00000000e+00 0.00000000e+00 0.00000000e+00)) ((1.96218844e-19 -6.06163555e-21 1.62543590e-14) (-3.07477695e-20 1.27375858e-22 5.90401783e-10) (0.00000000e+00 0.00000000e+00 0.00000000e+00))
4.55000000e+00	((1.10395107e+00 -1.35912183e-07 7.59174170e-21) (2.50124097e-01 5.38736588e-10 -1.23888245e-22) (0.00000000e+00 0.00000000e+00 0.00000000e+00)) ((1.95852059e-19 -6.04981639e-21 1.56032956e-14) (-3.07997066e-20 1.26921445e-22 6.14991126e-10) (0.00000000e+00 0.00000000e+00 0.00000000e+00))
4.60000000e+00	((1.10105599e+00 -1.42496831e-07 7.55033883e-21) (2.49550766e-01 3.39115375e-10 -1.23447659e-22) (0.00000000e+00 0.00000000e+00 0.00000000e+00)) ((1.95533352e-19 -6.04015414e-21 1.67392684e-14) (-3.08546312e-20 1.26479069e-22 6.37800703e-10) (0.00000000e+00 0.00000000e+00 0.00000000e+00))
4.65000000e+00	((1.09817206e+00 -1.46693564e-07 7.50573928e-21) (2.48980579e-01 8.48895954e-11 -1.23038463e-22) (0.00000000e+00 0.00000000e+00 0.00000000e+00)) ((1.95243482e-19 -6.03169349e-21 1.64440401e-14) (-3.09085267e-20 1.26068039e-22 6.60791760e-10) (0.00000000e+00 0.00000000e+00 0.00000000e+00))
4.70000000e+00	((1.09602034e+00 -1.78006467e-07 7.47376673e-21) (2.48419663e-01 -3.49391826e-10 -1.22612625e-22) (0.00000000e+00 0.00000000e+00 0.00000000e+00)) ((1.94981965e-19 -6.02607795e-21 1.73526016e-14) (-3.09632913e-20 1.25640543e-22 6.75625587e-10) (0.00000000e+00 0.00000000e+00 0.00000000e+00))
4.75000000e+00	((1.09341505e+00 -9.29281358e-08 7.43521954e-21) (2.47865261e-01 -2.01877563e-10 -1.22172126e-22) (0.00000000e+00 0.00000000e+00 0.00000000e+00)) ((1.94695027e-19 -6.01780825e-21 1.68373887e-14) (-3.10219307e-20 1.25199285e-22 7.02287242e-10) (0.00000000e+00 0.00000000e+00 0.00000000e+00))
4.80000000e+00	((1.09064546e+00 -1.43653169e-07 7.39684225e-21) (2.47315376e-01 -2.77795179e-10 -1.21728373e-22) (0.00000000e+00 0.00000000e+00 0.00000000e+00)) ((1.94386965e-19 -6.00794685e-21 1.66627237e-14) (-3.10855342e-20 1.24754129e-22 7.20124595e-10) (0.00000000e+00 0.00000000e+00 0.00000000e+00))
4.85000000e+00	((1.08810811e+00 -1.62591646e-07 7.35911192e-21) (2.46770769e-01 -5.52125337e-10 -1.21305502e-22) (0.00000000e+00 0.00000000e+00 0.00000000e+00)) ((1.94111356e-19 -5.99978208e-21 1.71656851e-14) (-3.11409691e-20 1.24330329e-22 7.33169220e-10) (0.00000000e+00 0.00000000e+00 0.00000000e+00))