# Region type : patch inlet
#     Faces  : 10
#     Area   : 9.65749567e-02
#          Time	weightedAverage(phi)	weightedAverage(U)	weightedAverage(p)
           0.05	-6.98355014e-05	(7.88470438e-03 3.06648196e-11 0.00000000e+00)	1.53103000e+00
            0.1	-1.41492027e-04	(1.46510061e-02 0.00000000e+00 0.00000000e+00)	1.53103000e+00
           0.15	-2.11570693e-04	(2.19074075e-02 0.00000000e+00 0.00000000e+00)	1.53103000e+00
            0.2	-2.80497774e-04	(2.90445664e-02 0.00000000e+00 0.00000000e+00)	1.53103000e+00
           0.25	-3.48410764e-04	(3.60767197e-02 0.00000000e+00 0.00000000e+00)	1.53103000e+00
            0.3	-4.15347743e-04	(4.30078104e-02 0.00000000e+00 0.00000000e+00)	1.53103000e+00
           0.35	-4.81411085e-04	(4.98484391e-02 0.00000000e+00 0.00000000e+00)	1.53103000e+00
            0.4	-5.46640149e-04	(5.66026812e-02 0.00000000e+00 0.00000000e+00)	1.53103000e+00
           0.45	-6.11094636e-04	(6.32767186e-02 0.00000000e+00 0.00000000e+00)	1.53103000e+00
            0.5	-6.74807338e-04	(6.98739468e-02 0.00000000e+00 0.00000000e+00)	1.53103000e+00
           0.55	-7.37818081e-04	(7.63984895e-02 0.00000000e+00 0.00000000e+00)	1.53103000e+00
            0.6	-8.00173866e-04	(8.28552135e-02 0.00000000e+00 0.00000000e+00)	1.53103000e+00
           0.65	-8.61899789e-04	(8.92467176e-02 0.00000000e+00 0.00000000e+00)	1.53103000e+00
            0.7	-9.23022173e-04	(9.55757273e-02 0.00000000e+00 0.00000000e+00)	1.53103000e+00
           0.75	-9.83566711e-04	(1.01844903e-01 0.00000000e+00 0.00000000e+00)	1.53103000e+00
            0.8	-1.04355645e-03	(1.08056632e-01 0.00000000e+00 0.00000000e+00)	1.53103000e+00
           0.85	-1.10301412e-03	(1.14213266e-01 0.00000000e+00 0.00000000e+00)	1.53103000e+00
            0.9	-1.16197083e-03	(1.20318028e-01 0.00000000e+00 0.00000000e+00)	1.53103000e+00
           0.95	-1.22040810e-03	(1.26369003e-01 0.00000000e+00 0.00000000e+00)	1.53103000e+00
              1	-1.27837146e-03	(1.32370907e-01 0.00000000e+00 0.00000000e+00)	1.53103000e+00
           1.05	-1.33584995e-03	(1.38322604e-01 0.00000000e+00 0.00000000e+00)	1.53103000e+00
            1.1	-1.39289669e-03	(1.44229595e-01 0.00000000e+00 0.00000000e+00)	1.53103000e+00
           1.15	-1.44947982e-03	(1.50088580e-01 0.00000000e+00 0.00000000e+00)	1.53103000e+00
            1.2	-1.50563241e-03	(1.55902985e-01 0.00000000e+00 0.00000000e+00)	1.53103000e+00
           1.25	-1.56138389e-03	(1.61675857e-01 0.00000000e+00 0.00000000e+00)	1.53103000e+00
            1.3	-1.61670195e-03	(1.67403849e-01 0.00000000e+00 0.00000000e+00)	1.53103000e+00
           1.35	-1.67161783e-03	(1.73090197e-01 0.00000000e+00 0.00000000e+00)	1.53103000e+00
            1.4	-1.72616002e-03	(1.78737851e-01 0.00000000e+00 0.00000000e+00)	1.53103000e+00
           1.45	-1.78029452e-03	(1.84343290e-01 0.00000000e+00 0.00000000e+00)	1.53103000e+00
            1.5	-1.83405265e-03	(1.89909756e-01 0.00000000e+00 0.00000000e+00)	1.53103000e+00
           1.55	-1.88745809e-03	(1.95439703e-01 0.00000000e+00 0.00000000e+00)	1.53103000e+00
            1.6	-1.94047757e-03	(2.00929686e-01 0.00000000e+00 0.00000000e+00)	1.53103000e+00
           1.65	-1.99314193e-03	(2.06382897e-01 0.00000000e+00 0.00000000e+00)	1.53103000e+00
            1.7	-2.04547125e-03	(2.11801416e-01 0.00000000e+00 0.00000000e+00)	1.53103000e+00
           1.75	-2.09743319e-03	(2.17181893e-01 0.00000000e+00 0.00000000e+00)	1.53103000e+00
            1.8	-2.14905853e-03	(2.22527516e-01 0.00000000e+00 0.00000000e+00)	1.53103000e+00
           1.85	-2.20036345e-03	(2.27839962e-01 0.00000000e+00 0.00000000e+00)	1.53103000e+00
            1.9	-2.25131717e-03	(2.33116042e-01 0.00000000e+00 0.00000000e+00)	1.53103000e+00
           1.95	-2.30195044e-03	(2.38358941e-01 0.00000000e+00 0.00000000e+00)	1.53103000e+00
              2	-2.35227569e-03	(2.43569946e-01 0.00000000e+00 0.00000000e+00)	1.53103000e+00
           2.05	-2.40226407e-03	(2.48746067e-01 0.00000000e+00 0.00000000e+00)	1.53103000e+00
            2.1	-2.45194629e-03	(2.53890488e-01 0.00000000e+00 0.00000000e+00)	1.53103000e+00
           2.15	-2.50132350e-03	(2.59003326e-01 0.00000000e+00 0.00000000e+00)	1.53103000e+00
            2.2	-2.55039178e-03	(2.64084176e-01 0.00000000e+00 0.00000000e+00)	1.53103000e+00
           2.25	-2.59915947e-03	(2.69133900e-01 0.00000000e+00 0.00000000e+00)	1.53103000e+00
            2.3	-2.64762983e-03	(2.74152836e-01 0.00000000e+00 0.00000000e+00)	1.53103000e+00
           2.35	-2.69580556e-03	(2.79141265e-01 0.00000000e+00 0.00000000e+00)	1.53103000e+00
            2.4	-2.74369014e-03	(2.84099547e-01 0.00000000e+00 0.00000000e+00)	1.53103000e+00
           2.45	-2.79128681e-03	(2.89028016e-01 0.00000000e+00 0.00000000e+00)	1.53103000e+00
            2.5	-2.83859867e-03	(2.93926994e-01 0.00000000e+00 0.00000000e+00)	1.53103000e+00
           2.55	-2.88562877e-03	(2.98796797e-01 0.00000000e+00 0.00000000e+00)	1.53103000e+00
            2.6	-2.93238004e-03	(3.03637727e-01 0.00000000e+00 0.00000000e+00)	1.53103000e+00
           2.65	-2.97885532e-03	(3.08450081e-01 0.00000000e+00 0.00000000e+00)	1.53103000e+00
            2.7	-3.02505737e-03	(3.13234142e-01 0.00000000e+00 0.00000000e+00)	1.53103000e+00
           2.75	-3.07098888e-03	(3.17990190e-01 0.00000000e+00 0.00000000e+00)	1.53103000e+00
            2.8	-3.11665246e-03	(3.22718494e-01 0.00000000e+00 0.00000000e+00)	1.53103000e+00
           2.85	-3.16205063e-03	(3.27419317e-01 0.00000000e+00 0.00000000e+00)	1.53103000e+00
            2.9	-3.20718588e-03	(3.32092914e-01 0.00000000e+00 0.00000000e+00)	1.53103000e+00
           2.95	-3.25206059e-03	(3.36739534e-01 0.00000000e+00 0.00000000e+00)	1.53103000e+00
              3	-3.29667713e-03	(3.41359421e-01 0.00000000e+00 0.00000000e+00)	1.53103000e+00
           3.05	-3.34103776e-03	(3.45952810e-01 0.00000000e+00 0.00000000e+00)	1.53103000e+00
            3.1	-3.38514473e-03	(3.50519933e-01 0.00000000e+00 0.00000000e+00)	1.53103000e+00
           3.15	-3.42900021e-03	(3.55061015e-01 0.00000000e+00 0.00000000e+00)	1.53103000e+00
            3.2	-3.47260632e-03	(3.59576275e-01 0.00000000e+00 0.00000000e+00)	1.53103000e+00
           3.25	-3.51596514e-03	(3.64065930e-01 0.00000000e+00 0.00000000e+00)	1.53103000e+00
            3.3	-3.55907871e-03	(3.68530190e-01 0.00000000e+00 0.00000000e+00)	1.53103000e+00
           3.35	-3.60194901e-03	(3.72969260e-01 0.00000000e+00 0.00000000e+00)	1.53103000e+00
            3.4	-3.64457800e-03	(3.77383343e-01 0.00000000e+00 0.00000000e+00)	1.53103000e+00
           3.45	-3.68696757e-03	(3.81772635e-01 0.00000000e+00 0.00000000e+00)	1.53103000e+00
            3.5	-3.72911959e-03	(3.86137330e-01 0.00000000e+00 0.00000000e+00)	1.53103000e+00
           3.55	-3.77103590e-03	(3.90477617e-01 0.00000000e+00 0.00000000e+00)	1.53103000e+00
            3.6	-3.81271827e-03	(3.94793682e-01 0.00000000e+00 0.00000000e+00)	1.53103000e+00
           3.65	-3.85416850e-03	(3.99085708e-01 0.00000000e+00 0.00000000e+00)	1.53103000e+00
            3.7	-3.89538829e-03	(4.03353874e-01 0.00000000e+00 0.00000000e+00)	1.53103000e+00
           3.75	-3.93637934e-03	(4.07598354e-01 0.00000000e+00 0.00000000e+00)	1.53103000e+00
            3.8	-3.97714332e-03	(4.11819323e-01 0.00000000e+00 0.00000000e+00)	1.53103000e+00
           3.85	-4.01768188e-03	(4.16016949e-01 0.00000000e+00 0.00000000e+00)	1.53103000e+00
            3.9	-4.05799662e-03	(4.20191399e-01 0.00000000e+00 0.00000000e+00)	1.53103000e+00
           3.95	-4.09808911e-03	(4.24342837e-01 0.00000000e+00 0.00000000e+00)	1.53103000e+00
              4	-4.13796093e-03	(4.28471425e-01 0.00000000e+00 0.00000000e+00)	1.53103000e+00
           4.05	-4.17761361e-03	(4.32577321e-01 0.00000000e+00 0.00000000e+00)	1.53103000e+00
            4.1	-4.21704865e-03	(4.36660682e-01 0.00000000e+00 0.00000000e+00)	1.53103000e+00
           4.15	-4.25626753e-03	(4.40721661e-01 0.00000000e+00 0.00000000e+00)	1.53103000e+00
            4.2	-4.29527173e-03	(4.44760410e-01 0.00000000e+00 0.00000000e+00)	1.53103000e+00
           4.25	-4.33406269e-03	(4.48777078e-01 0.00000000e+00 0.00000000e+00)	1.53103000e+00
            4.3	-4.37264183e-03	(4.52771814e-01 0.00000000e+00 0.00000000e+00)	1.53103000e+00
           4.35	-4.41101054e-03	(4.56744760e-01 0.00000000e+00 0.00000000e+00)	1.53103000e+00
            4.4	-4.44917022e-03	(4.60696062e-01 0.00000000e+00 0.00000000e+00)	1.53103000e+00
           4.45	-4.48712222e-03	(4.64625859e-01 0.00000000e+00 0.00000000e+00)	1.53103000e+00
            4.5	-4.52486791e-03	(4.68534293e-01 0.00000000e+00 0.00000000e+00)	1.53103000e+00
           4.55	-4.56240859e-03	(4.72421500e-01 0.00000000e+00 0.00000000e+00)	1.53103000e+00
            4.6	-4.59974558e-03	(4.76287615e-01 0.00000000e+00 0.00000000e+00)	1.53103000e+00
           4.65	-4.63688018e-03	(4.80132774e-01 0.00000000e+00 0.00000000e+00)	1.53103000e+00
            4.7	-4.67381368e-03	(4.83957108e-01 0.00000000e+00 0.00000000e+00)	1.53103000e+00
           4.75	-4.71054732e-03	(4.87760749e-01 0.00000000e+00 0.00000000e+00)	1.53103000e+00
            4.8	-4.74708237e-03	(4.91543826e-01 0.00000000e+00 0.00000000e+00)	1.53103000e+00
           4.85	-4.78342006e-03	(4.95306467e-01 0.00000000e+00 0.00000000e+00)	1.53103000e+00
            4.9	-4.81956160e-03	(4.99048798e-01 0.00000000e+00 0.00000000e+00)	1.53103000e+00
           4.95	-4.85550822e-03	(5.02770944e-01 0.00000000e+00 0.00000000e+00)	1.53103000e+00
              5	-4.89126109e-03	(5.06473030e-01 0.00000000e+00 0.00000000e+00)	1.53103000e+00
           5.05	-4.92682141e-03	(5.10155176e-01 0.00000000e+00 0.00000000e+00)	1.53103000e+00
            5.1	-4.96219033e-03	(5.13817505e-01 0.00000000e+00 0.00000000e+00)	1.53103000e+00
           5.15	-4.99736903e-03	(5.17460137e-01 0.00000000e+00 0.00000000e+00)	1.53103000e+00
            5.2	-5.03235865e-03	(5.21083190e-01 0.00000000e+00 0.00000000e+00)	1.53103000e+00
           5.25	-5.06716031e-03	(5.24686780e-01 0.00000000e+00 0.00000000e+00)	1.53103000e+00
            5.3	-5.10177514e-03	(5.28271026e-01 0.00000000e+00 0.00000000e+00)	1.53103000e+00
           5.35	-5.13620426e-03	(5.31836041e-01 0.00000000e+00 0.00000000e+00)	1.53103000e+00
            5.4	-5.17044877e-03	(5.35381940e-01 0.00000000e+00 0.00000000e+00)	1.53103000e+00
           5.45	-5.20450975e-03	(5.38908836e-01 0.00000000e+00 0.00000000e+00)	1.53103000e+00
            5.5	-5.23838829e-03	(5.42416841e-01 0.00000000e+00 0.00000000e+00)	1.53103000e+00
           5.55	-5.27208546e-03	(5.45906066e-01 0.00000000e+00 0.00000000e+00)	1.53103000e+00
            5.6	-5.30560233e-03	(5.49376620e-01 0.00000000e+00 0.00000000e+00)	1.53103000e+00
           5.65	-5.33893993e-03	(5.52828613e-01 0.00000000e+00 0.00000000e+00)	1.53103000e+00
            5.7	-5.37209933e-03	(5.56262152e-01 0.00000000e+00 0.00000000e+00)	1.53103000e+00
           5.75	-5.40508154e-03	(5.59677346e-01 0.00000000e+00 0.00000000e+00)	1.53103000e+00
            5.8	-5.43788760e-03	(5.63074299e-01 0.00000000e+00 0.00000000e+00)	1.53103000e+00
           5.85	-5.47051853e-03	(5.66453117e-01 0.00000000e+00 0.00000000e+00)	1.53103000e+00
            5.9	-5.50297532e-03	(5.69813906e-01 0.00000000e+00 0.00000000e+00)	1.53103000e+00
           5.95	-5.53525899e-03	(5.73156767e-01 0.00000000e+00 0.00000000e+00)	1.53103000e+00
              6	-5.56737053e-03	(5.76481804e-01 0.00000000e+00 0.00000000e+00)	1.53103000e+00
           6.05	-5.59931091e-03	(5.79789120e-01 0.00000000e+00 0.00000000e+00)	1.53103000e+00
            6.1	-5.63108113e-03	(5.83078815e-01 0.00000000e+00 0.00000000e+00)	1.53103000e+00
           6.15	-5.66268213e-03	(5.86350989e-01 0.00000000e+00 0.00000000e+00)	1.53103000e+00
            6.2	-5.69411490e-03	(5.89605742e-01 0.00000000e+00 0.00000000e+00)	1.53103000e+00
           6.25	-5.72538038e-03	(5.92843173e-01 0.00000000e+00 0.00000000e+00)	1.53103000e+00
            6.3	-5.75647951e-03	(5.96063380e-01 0.00000000e+00 0.00000000e+00)	1.53103000e+00
           6.35	-5.78741325e-03	(5.99266461e-01 0.00000000e+00 0.00000000e+00)	1.53103000e+00
            6.4	-5.81818252e-03	(6.02452512e-01 0.00000000e+00 0.00000000e+00)	1.53103000e+00
           6.45	-5.84878825e-03	(6.05621628e-01 0.00000000e+00 0.00000000e+00)	1.53103000e+00
            6.5	-5.87923136e-03	(6.08773906e-01 0.00000000e+00 0.00000000e+00)	1.53103000e+00
           6.55	-5.90951277e-03	(6.11909440e-01 0.00000000e+00 0.00000000e+00)	1.53103000e+00
            6.6	-5.93963337e-03	(6.15028323e-01 0.00000000e+00 0.00000000e+00)	1.53103000e+00
           6.65	-5.96959407e-03	(6.18130650e-01 0.00000000e+00 0.00000000e+00)	1.53103000e+00
            6.7	-5.99939577e-03	(6.21216512e-01 0.00000000e+00 0.00000000e+00)	1.53103000e+00
           6.75	-6.02903936e-03	(6.24286002e-01 0.00000000e+00 0.00000000e+00)	1.53103000e+00
            6.8	-6.05852571e-03	(6.27339210e-01 0.00000000e+00 0.00000000e+00)	1.53103000e+00
           6.85	-6.08785570e-03	(6.30376229e-01 0.00000000e+00 0.00000000e+00)	1.53103000e+00
            6.9	-6.11703020e-03	(6.33397147e-01 0.00000000e+00 0.00000000e+00)	1.53103000e+00
           6.95	-6.14605008e-03	(6.36402054e-01 0.00000000e+00 0.00000000e+00)	1.53103000e+00
              7	-6.17491619e-03	(6.39391039e-01 0.00000000e+00 0.00000000e+00)	1.53103000e+00
           7.05	-6.20362939e-03	(6.42364191e-01 0.00000000e+00 0.00000000e+00)	1.53103000e+00
            7.1	-6.23219052e-03	(6.45321596e-01 0.00000000e+00 0.00000000e+00)	1.53103000e+00
           7.15	-6.26060043e-03	(6.48263344e-01 0.00000000e+00 0.00000000e+00)	1.53103000e+00
            7.2	-6.28885995e-03	(6.51189519e-01 0.00000000e+00 0.00000000e+00)	1.53103000e+00
           7.25	-6.31696992e-03	(6.54100208e-01 0.00000000e+00 0.00000000e+00)	1.53103000e+00
            7.3	-6.34493116e-03	(6.56995496e-01 0.00000000e+00 0.00000000e+00)	1.53103000e+00
           7.35	-6.37274448e-03	(6.59875469e-01 0.00000000e+00 0.00000000e+00)	1.53103000e+00
            7.4	-6.40041071e-03	(6.62740210e-01 0.00000000e+00 0.00000000e+00)	1.53103000e+00
           7.45	-6.42793066e-03	(6.65589805e-01 0.00000000e+00 0.00000000e+00)	1.53103000e+00
            7.5	-6.45530512e-03	(6.68424335e-01 0.00000000e+00 0.00000000e+00)	1.53103000e+00
           7.55	-6.48253490e-03	(6.71243884e-01 0.00000000e+00 0.00000000e+00)	1.53103000e+00
            7.6	-6.50962080e-03	(6.74048534e-01 0.00000000e+00 0.00000000e+00)	1.53103000e+00
           7.65	-6.53656360e-03	(6.76838368e-01 0.00000000e+00 0.00000000e+00)	1.53103000e+00
            7.7	-6.56336410e-03	(6.79613465e-01 0.00000000e+00 0.00000000e+00)	1.53103000e+00
           7.75	-6.59002306e-03	(6.82373908e-01 0.00000000e+00 0.00000000e+00)	1.53103000e+00
            7.8	-6.61654127e-03	(6.85119776e-01 0.00000000e+00 0.00000000e+00)	1.53103000e+00
           7.85	-6.64291950e-03	(6.87851149e-01 0.00000000e+00 0.00000000e+00)	1.53103000e+00
            7.9	-6.66915851e-03	(6.90568107e-01 0.00000000e+00 0.00000000e+00)	1.53103000e+00
           7.95	-6.69525906e-03	(6.93270729e-01 0.00000000e+00 0.00000000e+00)	1.53103000e+00
              8	-6.72122192e-03	(6.95959092e-01 0.00000000e+00 0.00000000e+00)	1.53103000e+00
           8.05	-6.74704783e-03	(6.98633275e-01 0.00000000e+00 0.00000000e+00)	1.53103000e+00
            8.1	-6.77273754e-03	(7.01293355e-01 0.00000000e+00 0.00000000e+00)	1.53103000e+00
           8.15	-6.79829180e-03	(7.03939410e-01 0.00000000e+00 0.00000000e+00)	1.53103000e+00
            8.2	-6.82371134e-03	(7.06571515e-01 0.00000000e+00 0.00000000e+00)	1.53103000e+00
           8.25	-6.84899691e-03	(7.09189747e-01 0.00000000e+00 0.00000000e+00)	1.53103000e+00
            8.3	-6.87414924e-03	(7.11794183e-01 0.00000000e+00 0.00000000e+00)	1.53103000e+00
           8.35	-6.89916904e-03	(7.14384896e-01 0.00000000e+00 0.00000000e+00)	1.53103000e+00
            8.4	-6.92405704e-03	(7.16961962e-01 0.00000000e+00 0.00000000e+00)	1.53103000e+00
           8.45	-6.94881396e-03	(7.19525455e-01 0.00000000e+00 0.00000000e+00)	1.53103000e+00
            8.5	-6.97344051e-03	(7.22075448e-01 0.00000000e+00 0.00000000e+00)	1.53103000e+00
           8.55	-6.99793740e-03	(7.24612016e-01 0.00000000e+00 0.00000000e+00)	1.53103000e+00
            8.6	-7.02230534e-03	(7.27135231e-01 0.00000000e+00 0.00000000e+00)	1.53103000e+00
           8.65	-7.04654502e-03	(7.29645165e-01 0.00000000e+00 0.00000000e+00)	1.53103000e+00
            8.7	-7.07065715e-03	(7.32141892e-01 0.00000000e+00 0.00000000e+00)	1.53103000e+00
           8.75	-7.09464242e-03	(7.34625483e-01 0.00000000e+00 0.00000000e+00)	1.53103000e+00
            8.8	-7.11850152e-03	(7.37096009e-01 0.00000000e+00 0.00000000e+00)	1.53103000e+00
           8.85	-7.14223513e-03	(7.39553542e-01 0.00000000e+00 0.00000000e+00)	1.53103000e+00
            8.9	-7.16584393e-03	(7.41998151e-01 0.00000000e+00 0.00000000e+00)	1.53103000e+00
           8.95	-7.18932861e-03	(7.44429907e-01 0.00000000e+00 0.00000000e+00)	1.53103000e+00
              9	-7.21268983e-03	(7.46848881e-01 0.00000000e+00 0.00000000e+00)	1.53103000e+00
           9.05	-7.23592827e-03	(7.49255140e-01 0.00000000e+00 0.00000000e+00)	1.53103000e+00
            9.1	-7.25904459e-03	(7.51648754e-01 0.00000000e+00 0.00000000e+00)	1.53103000e+00
           9.15	-7.28203945e-03	(7.54029792e-01 0.00000000e+00 0.00000000e+00)	1.53103000e+00
            9.2	-7.30491352e-03	(7.56398322e-01 0.00000000e+00 0.00000000e+00)	1.53103000e+00
           9.25	-7.32766745e-03	(7.58754412e-01 0.00000000e+00 0.00000000e+00)	1.53103000e+00
            9.3	-7.35030189e-03	(7.61098129e-01 0.00000000e+00 0.00000000e+00)	1.53103000e+00
           9.35	-7.37281748e-03	(7.63429541e-01 0.00000000e+00 0.00000000e+00)	1.53103000e+00
            9.4	-7.39521488e-03	(7.65748713e-01 0.00000000e+00 0.00000000e+00)	1.53103000e+00
           9.45	-7.41749471e-03	(7.68055712e-01 0.00000000e+00 0.00000000e+00)	1.53103000e+00
            9.5	-7.43965763e-03	(7.70350605e-01 0.00000000e+00 0.00000000e+00)	1.53103000e+00
           9.55	-7.46170425e-03	(7.72633456e-01 0.00000000e+00 0.00000000e+00)	1.53103000e+00
            9.6	-7.48363522e-03	(7.74904331e-01 0.00000000e+00 0.00000000e+00)	1.53103000e+00
           9.65	-7.50545115e-03	(7.77163295e-01 0.00000000e+00 0.00000000e+00)	1.53103000e+00
            9.7	-7.52715268e-03	(7.79410412e-01 0.00000000e+00 0.00000000e+00)	1.53103000e+00
           9.75	-7.54874041e-03	(7.81645746e-01 0.00000000e+00 0.00000000e+00)	1.53103000e+00
            9.8	-7.57021496e-03	(7.83869361e-01 0.00000000e+00 0.00000000e+00)	1.53103000e+00
           9.85	-7.59157695e-03	(7.86081321e-01 0.00000000e+00 0.00000000e+00)	1.53103000e+00
            9.9	-7.61282699e-03	(7.88281688e-01 0.00000000e+00 0.00000000e+00)	1.53103000e+00
           9.95	-7.63396567e-03	(7.90470525e-01 0.00000000e+00 0.00000000e+00)	1.53103000e+00
             10	-7.65499361e-03	(7.92647895e-01 0.00000000e+00 0.00000000e+00)	1.53103000e+00
          10.05	-7.67591141e-03	(7.94813860e-01 0.00000000e+00 0.00000000e+00)	1.53103000e+00
           10.1	-7.69671964e-03	(7.96968480e-01 0.00000000e+00 0.00000000e+00)	1.53103000e+00
          10.15	-7.71741892e-03	(7.99111818e-01 0.00000000e+00 0.00000000e+00)	1.53103000e+00
           10.2	-7.73800982e-03	(8.01243934e-01 0.00000000e+00 0.00000000e+00)	1.53103000e+00
          10.25	-7.75849293e-03	(8.03364888e-01 0.00000000e+00 0.00000000e+00)	1.53103000e+00
           10.3	-7.77886883e-03	(8.05474742e-01 0.00000000e+00 0.00000000e+00)	1.53103000e+00
          10.35	-7.79913810e-03	(8.07573555e-01 0.00000000e+00 0.00000000e+00)	1.53103000e+00
           10.4	-7.81930132e-03	(8.09661386e-01 0.00000000e+00 0.00000000e+00)	1.53103000e+00
          10.45	-7.83935906e-03	(8.11738294e-01 0.00000000e+00 0.00000000e+00)	1.53103000e+00
           10.5	-7.85931189e-03	(8.13804340e-01 0.00000000e+00 0.00000000e+00)	1.53103000e+00
          10.55	-7.87916037e-03	(8.15859581e-01 0.00000000e+00 0.00000000e+00)	1.53103000e+00
           10.6	-7.89890506e-03	(8.17904075e-01 0.00000000e+00 0.00000000e+00)	1.53103000e+00
          10.65	-7.91854653e-03	(8.19937881e-01 0.00000000e+00 0.00000000e+00)	1.53103000e+00
           10.7	-7.93808534e-03	(8.21961056e-01 0.00000000e+00 0.00000000e+00)	1.53103000e+00
          10.75	-7.95752203e-03	(8.23973657e-01 0.00000000e+00 0.00000000e+00)	1.53103000e+00
           10.8	-7.97685715e-03	(8.25975742e-01 0.00000000e+00 0.00000000e+00)	1.53103000e+00
          10.85	-7.99609126e-03	(8.27967367e-01 0.00000000e+00 0.00000000e+00)	1.53103000e+00
           10.9	-8.01522490e-03	(8.29948588e-01 0.00000000e+00 0.00000000e+00)	1.53103000e+00
          10.95	-8.03425860e-03	(8.31919462e-01 0.00000000e+00 0.00000000e+00)	1.53103000e+00
             11	-8.05319291e-03	(8.33880044e-01 0.00000000e+00 0.00000000e+00)	1.53103000e+00
          11.05	-8.07202836e-03	(8.35830389e-01 0.00000000e+00 0.00000000e+00)	1.53103000e+00
           11.1	-8.09076549e-03	(8.37770553e-01 0.00000000e+00 0.00000000e+00)	1.53103000e+00
          11.15	-8.10940482e-03	(8.39700591e-01 0.00000000e+00 0.00000000e+00)	1.53103000e+00
           11.2	-8.12794688e-03	(8.41620557e-01 0.00000000e+00 0.00000000e+00)	1.53103000e+00
          11.25	-8.14639219e-03	(8.43530504e-01 0.00000000e+00 0.00000000e+00)	1.53103000e+00
           11.3	-8.16474128e-03	(8.45430488e-01 0.00000000e+00 0.00000000e+00)	1.53103000e+00
          11.35	-8.18299465e-03	(8.47320561e-01 0.00000000e+00 0.00000000e+00)	1.53103000e+00
           11.4	-8.20115283e-03	(8.49200778e-01 0.00000000e+00 0.00000000e+00)	1.53103000e+00
          11.45	-8.21921633e-03	(8.51071190e-01 0.00000000e+00 0.00000000e+00)	1.53103000e+00
           11.5	-8.23718565e-03	(8.52931851e-01 0.00000000e+00 0.00000000e+00)	1.53103000e+00
          11.55	-8.25506131e-03	(8.54782812e-01 0.00000000e+00 0.00000000e+00)	1.53103000e+00
           11.6	-8.27284380e-03	(8.56624127e-01 0.00000000e+00 0.00000000e+00)	1.53103000e+00
          11.65	-8.29053363e-03	(8.58455847e-01 0.00000000e+00 0.00000000e+00)	1.53103000e+00
           11.7	-8.30813129e-03	(8.60278024e-01 0.00000000e+00 0.00000000e+00)	1.53103000e+00
          11.75	-8.32563727e-03	(8.62090708e-01 0.00000000e+00 0.00000000e+00)	1.53103000e+00
           11.8	-8.34305208e-03	(8.63893951e-01 0.00000000e+00 0.00000000e+00)	1.53103000e+00
          11.85	-8.36037620e-03	(8.65687803e-01 0.00000000e+00 0.00000000e+00)	1.53103000e+00
           11.9	-8.37761012e-03	(8.67472315e-01 0.00000000e+00 0.00000000e+00)	1.53103000e+00
          11.95	-8.39475432e-03	(8.69247537e-01 0.00000000e+00 0.00000000e+00)	1.53103000e+00
             12	-8.41180928e-03	(8.71013518e-01 0.00000000e+00 0.00000000e+00)	1.53103000e+00
          12.05	-8.42877548e-03	(8.72770309e-01 0.00000000e+00 0.00000000e+00)	1.53103000e+00
           12.1	-8.44565340e-03	(8.74517959e-01 0.00000000e+00 0.00000000e+00)	1.53103000e+00
          12.15	-8.46244351e-03	(8.76256516e-01 0.00000000e+00 0.00000000e+00)	1.53103000e+00
           12.2	-8.47914628e-03	(8.77986030e-01 0.00000000e+00 0.00000000e+00)	1.53103000e+00
          12.25	-8.49576218e-03	(8.79706548e-01 0.00000000e+00 0.00000000e+00)	1.53103000e+00
           12.3	-8.51229168e-03	(8.81418120e-01 0.00000000e+00 0.00000000e+00)	1.53103000e+00
          12.35	-8.52873523e-03	(8.83120793e-01 0.00000000e+00 0.00000000e+00)	1.53103000e+00
           12.4	-8.54509330e-03	(8.84814614e-01 0.00000000e+00 0.00000000e+00)	1.53103000e+00
          12.45	-8.56136635e-03	(8.86499632e-01 0.00000000e+00 0.00000000e+00)	1.53103000e+00
           12.5	-8.57755483e-03	(8.88175892e-01 0.00000000e+00 0.00000000e+00)	1.53103000e+00
          12.55	-8.59365920e-03	(8.89843443e-01 0.00000000e+00 0.00000000e+00)	1.53103000e+00
           12.6	-8.60967990e-03	(8.91502331e-01 0.00000000e+00 0.00000000e+00)	1.53103000e+00
          12.65	-8.62561738e-03	(8.93152602e-01 0.00000000e+00 0.00000000e+00)	1.53103000e+00
           12.7	-8.64147209e-03	(8.94794302e-01 0.00000000e+00 0.00000000e+00)	1.53103000e+00
          12.75	-8.65724448e-03	(8.96427477e-01 0.00000000e+00 0.00000000e+00)	1.53103000e+00
           12.8	-8.67293497e-03	(8.98052173e-01 0.00000000e+00 0.00000000e+00)	1.53103000e+00
          12.85	-8.68854402e-03	(8.99668435e-01 0.00000000e+00 0.00000000e+00)	1.53103000e+00
           12.9	-8.70407205e-03	(9.01276309e-01 0.00000000e+00 0.00000000e+00)	1.53103000e+00
          12.95	-8.71951949e-03	(9.02875838e-01 0.00000000e+00 0.00000000e+00)	1.53103000e+00
             13	-8.73488679e-03	(9.04467068e-01 0.00000000e+00 0.00000000e+00)	1.53103000e+00
          13.05	-8.75017436e-03	(9.06050043e-01 0.00000000e+00 0.00000000e+00)	1.53103000e+00
           13.1	-8.76538264e-03	(9.07624807e-01 0.00000000e+00 0.00000000e+00)	1.53103000e+00
          13.15	-8.78051205e-03	(9.09191404e-01 0.00000000e+00 0.00000000e+00)	1.53103000e+00
           13.2	-8.79556300e-03	(9.10749878e-01 0.00000000e+00 0.00000000e+00)	1.53103000e+00
          13.25	-8.81053592e-03	(9.12300271e-01 0.00000000e+00 0.00000000e+00)	1.53103000e+00
           13.3	-8.82543122e-03	(9.13842628e-01 0.00000000e+00 0.00000000e+00)	1.53103000e+00
          13.35	-8.84024933e-03	(9.15376991e-01 0.00000000e+00 0.00000000e+00)	1.53103000e+00
           13.4	-8.85499064e-03	(9.16903403e-01 0.00000000e+00 0.00000000e+00)	1.53103000e+00
          13.45	-8.86965557e-03	(9.18421905e-01 0.00000000e+00 0.00000000e+00)	1.53103000e+00
           13.5	-8.88424453e-03	(9.19932541e-01 0.00000000e+00 0.00000000e+00)	1.53103000e+00
          13.55	-8.89875793e-03	(9.21435353e-01 0.00000000e+00 0.00000000e+00)	1.53103000e+00
           13.6	-8.91319616e-03	(9.22930381e-01 0.00000000e+00 0.00000000e+00)	1.53103000e+00
          13.65	-8.92755962e-03	(9.24417668e-01 0.00000000e+00 0.00000000e+00)	1.53103000e+00
           13.7	-8.94184873e-03	(9.25897255e-01 0.00000000e+00 0.00000000e+00)	1.53103000e+00
          13.75	-8.95606386e-03	(9.27369182e-01 0.00000000e+00 0.00000000e+00)	1.53103000e+00
           13.8	-8.97020542e-03	(9.28833491e-01 0.00000000e+00 0.00000000e+00)	1.53103000e+00
          13.85	-8.98427380e-03	(9.30290223e-01 0.00000000e+00 0.00000000e+00)	1.53103000e+00
           13.9	-8.99826938e-03	(9.31739417e-01 0.00000000e+00 0.00000000e+00)	1.53103000e+00
          13.95	-9.01219256e-03	(9.33181114e-01 0.00000000e+00 0.00000000e+00)	1.53103000e+00
             14	-9.02604373e-03	(9.34615354e-01 0.00000000e+00 0.00000000e+00)	1.53103000e+00
          14.05	-9.03982325e-03	(9.36042176e-01 0.00000000e+00 0.00000000e+00)	1.53103000e+00
           14.1	-9.05353153e-03	(9.37461619e-01 0.00000000e+00 0.00000000e+00)	1.53103000e+00
          14.15	-9.06716893e-03	(9.38873724e-01 0.00000000e+00 0.00000000e+00)	1.53103000e+00
           14.2	-9.08073583e-03	(9.40278530e-01 0.00000000e+00 0.00000000e+00)	1.53103000e+00
          14.25	-9.09423261e-03	(9.41676074e-01 0.00000000e+00 0.00000000e+00)	1.53103000e+00
           14.3	-9.10765963e-03	(9.43066396e-01 0.00000000e+00 0.00000000e+00)	1.53103000e+00
          14.35	-9.12101728e-03	(9.44449534e-01 0.00000000e+00 0.00000000e+00)	1.53103000e+00
           14.4	-9.13430592e-03	(9.45825526e-01 0.00000000e+00 0.00000000e+00)	1.53103000e+00
          14.45	-9.14752592e-03	(9.47194411e-01 0.00000000e+00 0.00000000e+00)	1.53103000e+00
           14.5	-9.16067764e-03	(9.48556225e-01 0.00000000e+00 0.00000000e+00)	1.53103000e+00
          14.55	-9.17376144e-03	(9.49911008e-01 0.00000000e+00 0.00000000e+00)	1.53103000e+00
           14.6	-9.18677769e-03	(9.51258795e-01 0.00000000e+00 0.00000000e+00)	1.53103000e+00
          14.65	-9.19972674e-03	(9.52599624e-01 0.00000000e+00 0.00000000e+00)	1.53103000e+00
           14.7	-9.21260896e-03	(9.53933532e-01 0.00000000e+00 0.00000000e+00)	1.53103000e+00
          14.75	-9.22542469e-03	(9.55260556e-01 0.00000000e+00 0.00000000e+00)	1.53103000e+00
           14.8	-9.23817428e-03	(9.56580733e-01 0.00000000e+00 0.00000000e+00)	1.53103000e+00
          14.85	-9.25085810e-03	(9.57894098e-01 0.00000000e+00 0.00000000e+00)	1.53103000e+00
           14.9	-9.26347649e-03	(9.59200688e-01 0.00000000e+00 0.00000000e+00)	1.53103000e+00
          14.95	-9.27602979e-03	(9.60500539e-01 0.00000000e+00 0.00000000e+00)	1.53103000e+00
             15	-9.28851836e-03	(9.61793686e-01 0.00000000e+00 0.00000000e+00)	1.53103000e+00
          15.05	-9.30094253e-03	(9.63080166e-01 0.00000000e+00 0.00000000e+00)	1.53103000e+00
           15.1	-9.31330265e-03	(9.64360013e-01 0.00000000e+00 0.00000000e+00)	1.53103000e+00
          15.15	-9.32559905e-03	(9.65633262e-01 0.00000000e+00 0.00000000e+00)	1.53103000e+00
           15.2	-9.33783207e-03	(9.66899949e-01 0.00000000e+00 0.00000000e+00)	1.53103000e+00
          15.25	-9.35000206e-03	(9.68160109e-01 0.00000000e+00 0.00000000e+00)	1.53103000e+00
           15.3	-9.36210933e-03	(9.69413775e-01 0.00000000e+00 0.00000000e+00)	1.53103000e+00
          15.35	-9.37415424e-03	(9.70660983e-01 0.00000000e+00 0.00000000e+00)	1.53103000e+00
           15.4	-9.38613710e-03	(9.71901766e-01 0.00000000e+00 0.00000000e+00)	1.53103000e+00
          15.45	-9.39805824e-03	(9.73136159e-01 0.00000000e+00 0.00000000e+00)	1.53103000e+00
           15.5	-9.40991799e-03	(9.74364195e-01 0.00000000e+00 0.00000000e+00)	1.53103000e+00
          15.55	-9.42171668e-03	(9.75585908e-01 0.00000000e+00 0.00000000e+00)	1.53103000e+00
           15.6	-9.43345463e-03	(9.76801332e-01 0.00000000e+00 0.00000000e+00)	1.53103000e+00
          15.65	-9.44513216e-03	(9.78010499e-01 0.00000000e+00 0.00000000e+00)	1.53103000e+00
           15.7	-9.45674959e-03	(9.79213444e-01 0.00000000e+00 0.00000000e+00)	1.53103000e+00
          15.75	-9.46830724e-03	(9.80410198e-01 0.00000000e+00 0.00000000e+00)	1.53103000e+00
           15.8	-9.47980542e-03	(9.81600794e-01 0.00000000e+00 0.00000000e+00)	1.53103000e+00
          15.85	-9.49124445e-03	(9.82785266e-01 0.00000000e+00 0.00000000e+00)	1.53103000e+00