# Region type : patch outlet
#     Faces  : 10
#     Area   : 9.65749567e-02
#          Time	max(U)	max(p)
           0.05	(7.37270218e-03 1.35235842e-06 0.00000000e+00)	0.00000000e+00
            0.1	(1.50664206e-02 7.10020720e-07 0.00000000e+00)	0.00000000e+00
           0.15	(2.27237264e-02 1.04221871e-06 0.00000000e+00)	0.00000000e+00
            0.2	(3.03796957e-02 1.20330128e-06 0.00000000e+00)	0.00000000e+00
           0.25	(3.80341324e-02 1.31391323e-06 0.00000000e+00)	0.00000000e+00
            0.3	(4.56885231e-02 1.37677953e-06 0.00000000e+00)	0.00000000e+00
           0.35	(5.33426248e-02 1.40212012e-06 0.00000000e+00)	0.00000000e+00
            0.4	(6.09964863e-02 1.39907387e-06 0.00000000e+00)	0.00000000e+00
           0.45	(6.86496837e-02 1.37476685e-06 0.00000000e+00)	0.00000000e+00
            0.5	(7.63020269e-02 1.33394925e-06 0.00000000e+00)	0.00000000e+00
           0.55	(8.39529726e-02 1.28189014e-06 0.00000000e+00)	0.00000000e+00
            0.6	(9.16020717e-02 1.22156512e-06 0.00000000e+00)	0.00000000e+00
           0.65	(9.92488467e-02 1.15563304e-06 0.00000000e+00)	0.00000000e+00
            0.7	(1.06892771e-01 1.08628158e-06 0.00000000e+00)	0.00000000e+00
           0.75	(1.14533277e-01 1.01517279e-06 0.00000000e+00)	0.00000000e+00
            0.8	(1.22169764e-01 9.43538159e-07 0.00000000e+00)	0.00000000e+00
           0.85	(1.29801602e-01 8.72341761e-07 0.00000000e+00)	0.00000000e+00
            0.9	(1.37428035e-01 8.02456145e-07 0.00000000e+00)	0.00000000e+00
           0.95	(1.45048596e-01 7.34100014e-07 0.00000000e+00)	0.00000000e+00
              1	(1.52662493e-01 6.68192658e-07 0.00000000e+00)	0.00000000e+00
           1.05	(1.60269080e-01 6.04834528e-07 0.00000000e+00)	0.00000000e+00
            1.1	(1.67867432e-01 5.44739011e-07 0.00000000e+00)	0.00000000e+00
           1.15	(1.75457046e-01 4.87750096e-07 0.00000000e+00)	0.00000000e+00
            1.2	(1.83037137e-01 4.42004886e-07 0.00000000e+00)	0.00000000e+00
           1.25	(1.90606747e-01 3.97873907e-07 0.00000000e+00)	0.00000000e+00
            1.3	(1.98165412e-01 3.55222321e-07 0.00000000e+00)	0.00000000e+00
           1.35	(2.05712351e-01 3.14173691e-07 0.00000000e+00)	0.00000000e+00
            1.4	(2.13246585e-01 2.75462868e-07 0.00000000e+00)	0.00000000e+00
           1.45	(2.20767670e-01 2.38591178e-07 0.00000000e+00)	0.00000000e+00
            1.5	(2.28274834e-01 2.04191658e-07 0.00000000e+00)	0.00000000e+00
           1.55	(2.35767126e-01 1.72621685e-07 0.00000000e+00)	0.00000000e+00
            1.6	(2.43244144e-01 1.43055655e-07 0.00000000e+00)	0.00000000e+00
           1.65	(2.50705144e-01 1.16116127e-07 0.00000000e+00)	0.00000000e+00
            1.7	(2.58149217e-01 9.20643853e-08 0.00000000e+00)	0.00000000e+00
           1.75	(2.65576004e-01 6.98612175e-08 0.00000000e+00)	0.00000000e+00
            1.8	(2.72984805e-01 5.01551344e-08 0.00000000e+00)	0.00000000e+00
           1.85	(2.80374762e-01 3.31611288e-08 0.00000000e+00)	0.00000000e+00
            1.9	(2.87745573e-01 1.99011730e-08 0.00000000e+00)	0.00000000e+00
           1.95	(2.95096584e-01 9.04387868e-09 0.00000000e+00)	0.00000000e+00
              2	(3.02426999e-01 9.36084816e-09 0.00000000e+00)	0.00000000e+00
           2.05	(3.09736573e-01 1.65447018e-08 0.00000000e+00)	0.00000000e+00
            2.1	(3.17024701e-01 2.42094829e-08 0.00000000e+00)	0.00000000e+00
           2.15	(3.24290774e-01 3.05044069e-08 0.00000000e+00)	0.00000000e+00
            2.2	(3.31534337e-01 3.54905329e-08 0.00000000e+00)	0.00000000e+00
           2.25	(3.38754940e-01 3.92756310e-08 0.00000000e+00)	0.00000000e+00
            2.3	(3.45952140e-01 4.19434648e-08 0.00000000e+00)	0.00000000e+00
           2.35	(3.53125508e-01 4.36095557e-08 0.00000000e+00)	0.00000000e+00
            2.4	(3.60274632e-01 4.43859938e-08 0.00000000e+00)	0.00000000e+00
           2.45	(3.67399120e-01 4.43881033e-08 0.00000000e+00)	0.00000000e+00
            2.5	(3.74498600e-01 4.37274159e-08 0.00000000e+00)	0.00000000e+00
           2.55	(3.81572716e-01 4.25044066e-08 0.00000000e+00)	0.00000000e+00
            2.6	(3.88621134e-01 4.08107131e-08 0.00000000e+00)	0.00000000e+00
           2.65	(3.95643534e-01 3.87310928e-08 0.00000000e+00)	0.00000000e+00
            2.7	(4.02639615e-01 3.63438114e-08 0.00000000e+00)	0.00000000e+00
           2.75	(4.09609093e-01 3.37193681e-08 0.00000000e+00)	0.00000000e+00
            2.8	(4.16551697e-01 3.09230133e-08 0.00000000e+00)	0.00000000e+00
           2.85	(4.23467177e-01 2.80118238e-08 0.00000000e+00)	0.00000000e+00
            2.9	(4.30355295e-01 2.50363937e-08 0.00000000e+00)	0.00000000e+00
           2.95	(4.37215828e-01 2.20441312e-08 0.00000000e+00)	0.00000000e+00
              3	(4.44048570e-01 1.90731217e-08 0.00000000e+00)	0.00000000e+00
           3.05	(4.50853327e-01 1.61541915e-08 0.00000000e+00)	0.00000000e+00
            3.1	(4.57629919e-01 1.35980346e-08 0.00000000e+00)	0.00000000e+00
           3.15	(4.64378179e-01 1.13413076e-08 0.00000000e+00)	0.00000000e+00
            3.2	(4.71097954e-01 9.16562323e-09 0.00000000e+00)	0.00000000e+00
           3.25	(4.77789103e-01 7.08567258e-09 0.00000000e+00)	0.00000000e+00
            3.3	(4.84451495e-01 5.11592681e-09 0.00000000e+00)	0.00000000e+00
           3.35	(4.91085012e-01 5.37728541e-09 0.00000000e+00)	0.00000000e+00
            3.4	(4.97689548e-01 6.99271111e-09 0.00000000e+00)	0.00000000e+00
           3.45	(5.04265007e-01 8.51199293e-09 0.00000000e+00)	0.00000000e+00
            3.5	(5.10811301e-01 9.93292850e-09 0.00000000e+00)	0.00000000e+00
           3.55	(5.17328355e-01 1.12573913e-08 0.00000000e+00)	0.00000000e+00
            3.6	(5.23816102e-01 1.24876015e-08 0.00000000e+00)	0.00000000e+00
           3.65	(5.30274484e-01 1.36281493e-08 0.00000000e+00)	0.00000000e+00
            3.7	(5.36703453e-01 1.46807856e-08 0.00000000e+00)	0.00000000e+00
           3.75	(5.43102967e-01 1.56519021e-08 0.00000000e+00)	0.00000000e+00
            3.8	(5.49472995e-01 1.65446711e-08 0.00000000e+00)	0.00000000e+00
           3.85	(5.55813511e-01 1.73642355e-08 0.00000000e+00)	0.00000000e+00
            3.9	(5.62124499e-01 1.81150458e-08 0.00000000e+00)	0.00000000e+00
           3.95	(5.68405948e-01 1.88024721e-08 0.00000000e+00)	0.00000000e+00
              4	(5.74657855e-01 1.94307582e-08 0.00000000e+00)	0.00000000e+00
           4.05	(5.80880222e-01 2.00048242e-08 0.00000000e+00)	0.00000000e+00
            4.1	(5.87073060e-01 2.05285421e-08 0.00000000e+00)	0.00000000e+00
           4.15	(5.93236382e-01 2.10064750e-08 0.00000000e+00)	0.00000000e+00
            4.2	(5.99370211e-01 2.14423336e-08 0.00000000e+00)	0.00000000e+00
           4.25	(6.05474573e-01 2.18392129e-08 0.00000000e+00)	0.00000000e+00
            4.3	(6.11549498e-01 2.22020838e-08 0.00000000e+00)	0.00000000e+00
           4.35	(6.17595025e-01 2.25314213e-08 0.00000000e+00)	0.00000000e+00
            4.4	(6.23611193e-01 2.28318508e-08 0.00000000e+00)	0.00000000e+00
           4.45	(6.29598050e-01 2.31058314e-08 0.00000000e+00)	0.00000000e+00
            4.5	(6.35555644e-01 2.33546296e-08 0.00000000e+00)	0.00000000e+00
           4.55	(6.41484030e-01 2.35806314e-08 0.00000000e+00)	0.00000000e+00
            4.6	(6.47383267e-01 2.37859690e-08 0.00000000e+00)	0.00000000e+00
           4.65	(6.53253416e-01 2.39726840e-08 0.00000000e+00)	0.00000000e+00
            4.7	(6.59094542e-01 2.41402394e-08 0.00000000e+00)	0.00000000e+00
           4.75	(6.64906714e-01 2.42919459e-08 0.00000000e+00)	0.00000000e+00
            4.8	(6.70690005e-01 2.44276083e-08 0.00000000e+00)	0.00000000e+00
           4.85	(6.76444488e-01 2.45495757e-08 0.00000000e+00)	0.00000000e+00
            4.9	(6.82170243e-01 2.46563268e-08 0.00000000e+00)	0.00000000e+00
           4.95	(6.87867350e-01 2.47509892e-08 0.00000000e+00)	0.00000000e+00
              5	(6.93535891e-01 2.48337070e-08 0.00000000e+00)	0.00000000e+00
           5.05	(6.99175953e-01 2.48380948e-08 0.00000000e+00)	0.00000000e+00
            5.1	(7.04787623e-01 2.48397006e-08 0.00000000e+00)	0.00000000e+00
           5.15	(7.10370993e-01 2.48425821e-08 0.00000000e+00)	0.00000000e+00
            5.2	(7.15926153e-01 2.48493047e-08 0.00000000e+00)	0.00000000e+00
           5.25	(7.21453199e-01 2.48558082e-08 0.00000000e+00)	0.00000000e+00
            5.3	(7.26952227e-01 2.48628321e-08 0.00000000e+00)	0.00000000e+00
           5.35	(7.32423334e-01 2.48669880e-08 0.00000000e+00)	0.00000000e+00
            5.4	(7.37866620e-01 2.49009556e-08 0.00000000e+00)	0.00000000e+00
           5.45	(7.43282186e-01 2.49254582e-08 0.00000000e+00)	0.00000000e+00
            5.5	(7.48670135e-01 2.49389059e-08 0.00000000e+00)	0.00000000e+00
           5.55	(7.54030571e-01 2.49411746e-08 0.00000000e+00)	0.00000000e+00
            5.6	(7.59363598e-01 2.49326913e-08 0.00000000e+00)	0.00000000e+00
           5.65	(7.64669324e-01 2.49128926e-08 0.00000000e+00)	0.00000000e+00
            5.7	(7.69947856e-01 2.48824612e-08 0.00000000e+00)	0.00000000e+00
           5.75	(7.75199303e-01 2.48419900e-08 0.00000000e+00)	0.00000000e+00
            5.8	(7.80423773e-01 2.47918788e-08 0.00000000e+00)	0.00000000e+00
           5.85	(7.85621379e-01 2.47330138e-08 0.00000000e+00)	0.00000000e+00
            5.9	(7.90792231e-01 2.46656937e-08 0.00000000e+00)	0.00000000e+00
           5.95	(7.95936441e-01 2.45904263e-08 0.00000000e+00)	0.00000000e+00
              6	(8.01054122e-01 2.45083728e-08 0.00000000e+00)	0.00000000e+00
           6.05	(8.06145387e-01 2.44193821e-08 0.00000000e+00)	0.00000000e+00
            6.1	(8.11210352e-01 2.43240855e-08 0.00000000e+00)	0.00000000e+00
           6.15	(8.16249130e-01 2.42230854e-08 0.00000000e+00)	0.00000000e+00
            6.2	(8.21261837e-01 2.41164378e-08 0.00000000e+00)	0.00000000e+00
           6.25	(8.26248588e-01 2.40044405e-08 0.00000000e+00)	0.00000000e+00
            6.3	(8.31209499e-01 2.38875274e-08 0.00000000e+00)	0.00000000e+00
           6.35	(8.36144687e-01 2.37658515e-08 0.00000000e+00)	0.00000000e+00
            6.4	(8.41054269e-01 2.36395716e-08 0.00000000e+00)	0.00000000e+00
           6.45	(8.45938362e-01 2.35087622e-08 0.00000000e+00)	0.00000000e+00
            6.5	(8.50797082e-01 2.33738080e-08 0.00000000e+00)	0.00000000e+00
           6.55	(8.55630547e-01 2.32347630e-08 0.00000000e+00)	0.00000000e+00
            6.6	(8.60438876e-01 2.30916849e-08 0.00000000e+00)	0.00000000e+00
           6.65	(8.65222185e-01 2.29448345e-08 0.00000000e+00)	0.00000000e+00
            6.7	(8.69980593e-01 2.27943428e-08 0.00000000e+00)	0.00000000e+00
           6.75	(8.74714218e-01 2.26401235e-08 0.00000000e+00)	0.00000000e+00
            6.8	(8.79423177e-01 2.24825026e-08 0.00000000e+00)	0.00000000e+00
           6.85	(8.84107589e-01 2.23215902e-08 0.00000000e+00)	0.00000000e+00
            6.9	(8.88767571e-01 2.21573973e-08 0.00000000e+00)	0.00000000e+00
           6.95	(8.93403242e-01 2.19900224e-08 0.00000000e+00)	0.00000000e+00
              7	(8.98014719e-01 2.18196893e-08 0.00000000e+00)	0.00000000e+00
           7.05	(9.02602121e-01 2.16463287e-08 0.00000000e+00)	0.00000000e+00
            7.1	(9.07165564e-01 2.14701589e-08 0.00000000e+00)	0.00000000e+00
           7.15	(9.11705167e-01 2.12912282e-08 0.00000000e+00)	0.00000000e+00
            7.2	(9.16221047e-01 2.11095547e-08 0.00000000e+00)	0.00000000e+00
           7.25	(9.20713322e-01 2.09252506e-08 0.00000000e+00)	0.00000000e+00
            7.3	(9.25182107e-01 2.07384277e-08 0.00000000e+00)	0.00000000e+00
           7.35	(9.29627521e-01 2.05491067e-08 0.00000000e+00)	0.00000000e+00
            7.4	(9.34049680e-01 2.03573555e-08 0.00000000e+00)	0.00000000e+00
           7.45	(9.38448700e-01 2.01632754e-08 0.00000000e+00)	0.00000000e+00
            7.5	(9.42824697e-01 1.99668972e-08 0.00000000e+00)	0.00000000e+00
           7.55	(9.47177788e-01 1.97683029e-08 0.00000000e+00)	0.00000000e+00
            7.6	(9.51508088e-01 1.95675791e-08 0.00000000e+00)	0.00000000e+00
           7.65	(9.55815712e-01 1.93647158e-08 0.00000000e+00)	0.00000000e+00
            7.7	(9.60100775e-01 1.91598362e-08 0.00000000e+00)	0.00000000e+00
           7.75	(9.64363392e-01 1.89529962e-08 0.00000000e+00)	0.00000000e+00
            7.8	(9.68603678e-01 1.87442422e-08 0.00000000e+00)	0.00000000e+00
           7.85	(9.72821746e-01 1.85336752e-08 0.00000000e+00)	0.00000000e+00
            7.9	(9.77017710e-01 1.83213583e-08 0.00000000e+00)	0.00000000e+00
           7.95	(9.81191683e-01 1.81073674e-08 0.00000000e+00)	0.00000000e+00
              8	(9.85343779e-01 1.78917933e-08 0.00000000e+00)	0.00000000e+00
           8.05	(9.89474110e-01 1.76747052e-08 0.00000000e+00)	0.00000000e+00
            8.1	(9.93582789e-01 1.74562125e-08 0.00000000e+00)	0.00000000e+00
           8.15	(9.97669926e-01 1.72364221e-08 0.00000000e+00)	0.00000000e+00
            8.2	(1.00173563e+00 1.70154341e-08 0.00000000e+00)	0.00000000e+00
           8.25	(1.00578002e+00 1.68301827e-08 0.00000000e+00)	0.00000000e+00
            8.3	(1.00980321e+00 1.65852882e-08 0.00000000e+00)	0.00000000e+00
           8.35	(1.01380529e+00 1.63106410e-08 0.00000000e+00)	0.00000000e+00
            8.4	(1.01778639e+00 1.60178575e-08 0.00000000e+00)	0.00000000e+00
           8.45	(1.02174660e+00 1.57159512e-08 0.00000000e+00)	0.00000000e+00
            8.5	(1.02568605e+00 1.54110426e-08 0.00000000e+00)	0.00000000e+00
           8.55	(1.02960484e+00 1.51082641e-08 0.00000000e+00)	0.00000000e+00
            8.6	(1.03350307e+00 1.48109199e-08 0.00000000e+00)	0.00000000e+00
           8.65	(1.03738086e+00 1.45206833e-08 0.00000000e+00)	0.00000000e+00
            8.7	(1.04123832e+00 1.42378812e-08 0.00000000e+00)	0.00000000e+00
           8.75	(1.04507554e+00 1.39619555e-08 0.00000000e+00)	0.00000000e+00
            8.8	(1.04889263e+00 1.36918421e-08 0.00000000e+00)	0.00000000e+00
           8.85	(1.05268971e+00 1.34262685e-08 0.00000000e+00)	0.00000000e+00
            8.9	(1.05646687e+00 1.31639576e-08 0.00000000e+00)	0.00000000e+00
           8.95	(1.06022422e+00 1.29037628e-08 0.00000000e+00)	0.00000000e+00
              9	(1.06396187e+00 1.26447559e-08 0.00000000e+00)	0.00000000e+00
           9.05	(1.06767992e+00 1.23862276e-08 0.00000000e+00)	0.00000000e+00
            9.1	(1.07137847e+00 1.21276879e-08 0.00000000e+00)	0.00000000e+00
           9.15	(1.07505762e+00 1.18688306e-08 0.00000000e+00)	0.00000000e+00
            9.2	(1.07871749e+00 1.16095008e-08 0.00000000e+00)	0.00000000e+00
           9.25	(1.08235816e+00 1.13496463e-08 0.00000000e+00)	0.00000000e+00
            9.3	(1.08597975e+00 1.10892869e-08 0.00000000e+00)	0.00000000e+00
           9.35	(1.08958235e+00 1.08284882e-08 0.00000000e+00)	0.00000000e+00
            9.4	(1.09316606e+00 1.05673332e-08 0.00000000e+00)	0.00000000e+00
           9.45	(1.09673099e+00 1.03059134e-08 0.00000000e+00)	0.00000000e+00
            9.5	(1.10027723e+00 1.00443171e-08 0.00000000e+00)	0.00000000e+00
           9.55	(1.10380489e+00 9.78263071e-09 0.00000000e+00)	0.00000000e+00
            9.6	(1.10731406e+00 9.52093390e-09 0.00000000e+00)	0.00000000e+00
           9.65	(1.11080483e+00 9.25930401e-09 0.00000000e+00)	0.00000000e+00
            9.7	(1.11427732e+00 8.99781180e-09 0.00000000e+00)	0.00000000e+00
           9.75	(1.11773161e+00 8.73652557e-09 0.00000000e+00)	0.00000000e+00
            9.8	(1.12116780e+00 8.47551102e-09 0.00000000e+00)	0.00000000e+00
           9.85	(1.12458599e+00 8.21483321e-09 0.00000000e+00)	0.00000000e+00
            9.9	(1.12798628e+00 7.95455585e-09 0.00000000e+00)	0.00000000e+00
           9.95	(1.13136875e+00 7.69474273e-09 0.00000000e+00)	0.00000000e+00
             10	(1.13473351e+00 7.52848988e-09 0.00000000e+00)	0.00000000e+00
          10.05	(1.13808065e+00 7.31470459e-09 0.00000000e+00)	0.00000000e+00
           10.1	(1.14141026e+00 7.13175989e-09 0.00000000e+00)	0.00000000e+00
          10.15	(1.14472244e+00 6.93598839e-09 0.00000000e+00)	0.00000000e+00
           10.2	(1.14801728e+00 6.71971583e-09 0.00000000e+00)	0.00000000e+00
          10.25	(1.15129487e+00 6.48758631e-09 0.00000000e+00)	0.00000000e+00
           10.3	(1.15455531e+00 6.24411940e-09 0.00000000e+00)	0.00000000e+00
          10.35	(1.15779868e+00 5.99333869e-09 0.00000000e+00)	0.00000000e+00
           10.4	(1.16102508e+00 5.73839405e-09 0.00000000e+00)	0.00000000e+00
          10.45	(1.16423460e+00 5.48147472e-09 0.00000000e+00)	0.00000000e+00
           10.5	(1.16742732e+00 5.22391476e-09 0.00000000e+00)	0.00000000e+00
          10.55	(1.17060335e+00 4.96664423e-09 0.00000000e+00)	0.00000000e+00
           10.6	(1.17376276e+00 4.71024149e-09 0.00000000e+00)	0.00000000e+00
          10.65	(1.17690564e+00 4.45502865e-09 0.00000000e+00)	0.00000000e+00
           10.7	(1.18003210e+00 4.20116587e-09 0.00000000e+00)	0.00000000e+00
          10.75	(1.18314220e+00 3.94872084e-09 0.00000000e+00)	0.00000000e+00
           10.8	(1.18623604e+00 3.69775739e-09 0.00000000e+00)	0.00000000e+00
          10.85	(1.18931371e+00 3.44834147e-09 0.00000000e+00)	0.00000000e+00
           10.9	(1.19237530e+00 3.20052567e-09 0.00000000e+00)	0.00000000e+00
          10.95	(1.19542088e+00 2.95433731e-09 0.00000000e+00)	0.00000000e+00
             11	(1.19845055e+00 2.70979817e-09 0.00000000e+00)	0.00000000e+00
          11.05	(1.20146439e+00 2.46695671e-09 0.00000000e+00)	0.00000000e+00
           11.1	(1.20446248e+00 2.22591217e-09 0.00000000e+00)	0.00000000e+00
          11.15	(1.20744491e+00 1.98635912e-09 0.00000000e+00)	0.00000000e+00
           11.2	(1.21041177e+00 1.74830621e-09 0.00000000e+00)	0.00000000e+00
          11.25	(1.21336313e+00 1.51169442e-09 0.00000000e+00)	0.00000000e+00
           11.3	(1.21629908e+00 1.27638005e-09 0.00000000e+00)	0.00000000e+00
          11.35	(1.21921971e+00 1.04199419e-09 0.00000000e+00)	0.00000000e+00
           11.4	(1.22212508e+00 8.07661640e-10 0.00000000e+00)	0.00000000e+00
          11.45	(1.22501530e+00 5.73935540e-10 0.00000000e+00)	0.00000000e+00
           11.5	(1.22789043e+00 4.96916052e-10 0.00000000e+00)	0.00000000e+00
          11.55	(1.23075056e+00 7.05668181e-10 0.00000000e+00)	0.00000000e+00
           11.6	(1.23359576e+00 9.12753315e-10 0.00000000e+00)	0.00000000e+00
          11.65	(1.23642613e+00 1.11798639e-09 0.00000000e+00)	0.00000000e+00
           11.7	(1.23924173e+00 1.32183083e-09 0.00000000e+00)	0.00000000e+00
          11.75	(1.24204265e+00 1.52463782e-09 0.00000000e+00)	0.00000000e+00
           11.8	(1.24482896e+00 1.72609881e-09 0.00000000e+00)	0.00000000e+00
          11.85	(1.24760075e+00 1.92619908e-09 0.00000000e+00)	0.00000000e+00
           11.9	(1.25035808e+00 2.12501511e-09 0.00000000e+00)	0.00000000e+00
          11.95	(1.25310105e+00 2.32260415e-09 0.00000000e+00)	0.00000000e+00
             12	(1.25582972e+00 2.51853248e-09 0.00000000e+00)	0.00000000e+00
          12.05	(1.25854417e+00 2.71294041e-09 0.00000000e+00)	0.00000000e+00
           12.1	(1.26124449e+00 2.90585758e-09 0.00000000e+00)	0.00000000e+00
          12.15	(1.26393073e+00 3.09689047e-09 0.00000000e+00)	0.00000000e+00
           12.2	(1.26660299e+00 3.28627115e-09 0.00000000e+00)	0.00000000e+00
          12.25	(1.26926132e+00 3.47394298e-09 0.00000000e+00)	0.00000000e+00
           12.3	(1.27190582e+00 3.65986753e-09 0.00000000e+00)	0.00000000e+00
          12.35	(1.27453655e+00 3.84395641e-09 0.00000000e+00)	0.00000000e+00
           12.4	(1.27715358e+00 4.02609793e-09 0.00000000e+00)	0.00000000e+00
          12.45	(1.27975700e+00 4.20617288e-09 0.00000000e+00)	0.00000000e+00
           12.5	(1.28234687e+00 4.38404921e-09 0.00000000e+00)	0.00000000e+00
          12.55	(1.28492326e+00 4.55957905e-09 0.00000000e+00)	0.00000000e+00
           12.6	(1.28748625e+00 4.73257078e-09 0.00000000e+00)	0.00000000e+00
          12.65	(1.29003590e+00 4.90277594e-09 0.00000000e+00)	0.00000000e+00
           12.7	(1.29257230e+00 5.06982609e-09 0.00000000e+00)	0.00000000e+00
          12.75	(1.29509551e+00 5.23337050e-09 0.00000000e+00)	0.00000000e+00
           12.8	(1.29760560e+00 5.39298809e-09 0.00000000e+00)	0.00000000e+00
          12.85	(1.30010264e+00 5.54813738e-09 0.00000000e+00)	0.00000000e+00
           12.9	(1.30258670e+00 5.69832018e-09 0.00000000e+00)	0.00000000e+00
          12.95	(1.30505785e+00 5.84280514e-09 0.00000000e+00)	0.00000000e+00
             13	(1.30751616e+00 5.98071326e-09 0.00000000e+00)	0.00000000e+00
          13.05	(1.30996170e+00 6.11134198e-09 0.00000000e+00)	0.00000000e+00
           13.1	(1.31239454e+00 6.23368145e-09 0.00000000e+00)	0.00000000e+00
          13.15	(1.31481474e+00 6.34634664e-09 0.00000000e+00)	0.00000000e+00
           13.2	(1.31722237e+00 6.44824676e-09 0.00000000e+00)	0.00000000e+00
          13.25	(1.31961750e+00 6.53862615e-09 0.00000000e+00)	0.00000000e+00
           13.3	(1.32200020e+00 6.61500957e-09 0.00000000e+00)	0.00000000e+00
          13.35	(1.32437053e+00 6.67479658e-09 0.00000000e+00)	0.00000000e+00
           13.4	(1.32672855e+00 6.71799204e-09 0.00000000e+00)	0.00000000e+00
          13.45	(1.32907434e+00 6.74165274e-09 0.00000000e+00)	0.00000000e+00
           13.5	(1.33140796e+00 6.74417718e-09 0.00000000e+00)	0.00000000e+00
          13.55	(1.33372948e+00 6.72384699e-09 0.00000000e+00)	0.00000000e+00
           13.6	(1.33603895e+00 6.67359275e-09 0.00000000e+00)	0.00000000e+00
          13.65	(1.33833644e+00 6.59299052e-09 0.00000000e+00)	0.00000000e+00
           13.7	(1.34062203e+00 6.48447392e-09 0.00000000e+00)	0.00000000e+00
          13.75	(1.34289576e+00 6.34008679e-09 0.00000000e+00)	0.00000000e+00
           13.8	(1.34515770e+00 6.15771270e-09 0.00000000e+00)	0.00000000e+00
          13.85	(1.34740792e+00 5.93092560e-09 0.00000000e+00)	0.00000000e+00
           13.9	(1.34964648e+00 5.67295197e-09 0.00000000e+00)	0.00000000e+00
          13.95	(1.35187344e+00 5.35704605e-09 0.00000000e+00)	0.00000000e+00
             14	(1.35408887e+00 5.75267964e-09 0.00000000e+00)	0.00000000e+00
          14.05	(1.35629282e+00 7.23657635e-09 0.00000000e+00)	0.00000000e+00
           14.1	(1.35848535e+00 8.87104976e-09 0.00000000e+00)	0.00000000e+00
          14.15	(1.36066653e+00 1.06651559e-08 0.00000000e+00)	0.00000000e+00
           14.2	(1.36283641e+00 1.26250178e-08 0.00000000e+00)	0.00000000e+00
          14.25	(1.36499506e+00 1.47595948e-08 0.00000000e+00)	0.00000000e+00
           14.3	(1.36714254e+00 1.70739781e-08 0.00000000e+00)	0.00000000e+00
          14.35	(1.36927890e+00 1.95751579e-08 0.00000000e+00)	0.00000000e+00
           14.4	(1.37140421e+00 2.22707148e-08 0.00000000e+00)	0.00000000e+00
          14.45	(1.37351852e+00 2.51663296e-08 0.00000000e+00)	0.00000000e+00
           14.5	(1.37562190e+00 2.82678393e-08 0.00000000e+00)	0.00000000e+00
          14.55	(1.37771439e+00 3.15797711e-08 0.00000000e+00)	0.00000000e+00
           14.6	(1.37979606e+00 3.51014853e-08 0.00000000e+00)	0.00000000e+00
          14.65	(1.38186697e+00 3.88386940e-08 0.00000000e+00)	0.00000000e+00
           14.7	(1.38392717e+00 4.27940416e-08 0.00000000e+00)	0.00000000e+00
          14.75	(1.38597672e+00 4.69694724e-08 0.00000000e+00)	0.00000000e+00
           14.8	(1.38801568e+00 5.13659797e-08 0.00000000e+00)	0.00000000e+00
          14.85	(1.39004410e+00 5.59838259e-08 0.00000000e+00)	0.00000000e+00
           14.9	(1.39206203e+00 6.08224958e-08 0.00000000e+00)	0.00000000e+00
          14.95	(1.39406954e+00 6.58806972e-08 0.00000000e+00)	0.00000000e+00
             15	(1.39606668e+00 7.11563954e-08 0.00000000e+00)	0.00000000e+00
          15.05	(1.39805351e+00 7.66468196e-08 0.00000000e+00)	0.00000000e+00
           15.1	(1.40003007e+00 8.23484929e-08 0.00000000e+00)	0.00000000e+00
          15.15	(1.40199643e+00 8.82572674e-08 0.00000000e+00)	0.00000000e+00
           15.2	(1.40395264e+00 9.43683649e-08 0.00000000e+00)	0.00000000e+00
          15.25	(1.40589874e+00 1.00676421e-07 0.00000000e+00)	0.00000000e+00
           15.3	(1.40783480e+00 1.07175536e-07 0.00000000e+00)	0.00000000e+00
          15.35	(1.40976088e+00 1.13859322e-07 0.00000000e+00)	0.00000000e+00
           15.4	(1.41167701e+00 1.20720959e-07 0.00000000e+00)	0.00000000e+00
          15.45	(1.41358325e+00 1.27753249e-07 0.00000000e+00)	0.00000000e+00
           15.5	(1.41547967e+00 1.34948670e-07 0.00000000e+00)	0.00000000e+00
          15.55	(1.41736630e+00 1.42299430e-07 0.00000000e+00)	0.00000000e+00
           15.6	(1.41924320e+00 1.49797518e-07 0.00000000e+00)	0.00000000e+00
          15.65	(1.42111042e+00 1.57434766e-07 0.00000000e+00)	0.00000000e+00
           15.7	(1.42296802e+00 1.65202887e-07 0.00000000e+00)	0.00000000e+00
          15.75	(1.42481604e+00 1.73093534e-07 0.00000000e+00)	0.00000000e+00
           15.8	(1.42665454e+00 1.81098345e-07 0.00000000e+00)	0.00000000e+00
          15.85	(1.42848356e+00 1.89208983e-07 0.00000000e+00)	0.00000000e+00
           15.9	(1.43030316e+00 1.97417182e-07 0.00000000e+00)	0.00000000e+00
          15.95	(1.43211338e+00 2.05714780e-07 0.00000000e+00)	0.00000000e+00
             16	(1.43391428e+00 2.14093756e-07 0.00000000e+00)	0.00000000e+00
          16.05	(1.43570591e+00 2.22546259e-07 0.00000000e+00)	0.00000000e+00
           16.1	(1.43748830e+00 2.31064636e-07 0.00000000e+00)	0.00000000e+00
          16.15	(1.43926152e+00 2.39641456e-07 0.00000000e+00)	0.00000000e+00
           16.2	(1.44102561e+00 2.48269524e-07 0.00000000e+00)	0.00000000e+00
          16.25	(1.44278063e+00 2.56941904e-07 0.00000000e+00)	0.00000000e+00
           16.3	(1.44452660e+00 2.65651927e-07 0.00000000e+00)	0.00000000e+00
          16.35	(1.44626360e+00 2.74393203e-07 0.00000000e+00)	0.00000000e+00
           16.4	(1.44799165e+00 2.83159624e-07 0.00000000e+00)	0.00000000e+00
          16.45	(1.44971082e+00 2.91945372e-07 0.00000000e+00)	0.00000000e+00
           16.5	(1.45142114e+00 3.00744910e-07 0.00000000e+00)	0.00000000e+00
          16.55	(1.45312266e+00 3.09552999e-07 0.00000000e+00)	0.00000000e+00
           16.6	(1.45481544e+00 3.18364714e-07 0.00000000e+00)	0.00000000e+00
          16.65	(1.45649951e+00 3.27175356e-07 0.00000000e+00)	0.00000000e+00
           16.7	(1.45817493e+00 3.35980497e-07 0.00000000e+00)	0.00000000e+00
          16.75	(1.45984173e+00 3.44775997e-07 0.00000000e+00)	0.00000000e+00
           16.8	(1.46149996e+00 3.53557966e-07 0.00000000e+00)	0.00000000e+00
          16.85	(1.46314968e+00 3.62322754e-07 0.00000000e+00)	0.00000000e+00
           16.9	(1.46479092e+00 3.71066957e-07 0.00000000e+00)	0.00000000e+00
          16.95	(1.46642372e+00 3.79787387e-07 0.00000000e+00)	0.00000000e+00
             17	(1.46804814e+00 3.88481048e-07 0.00000000e+00)	0.00000000e+00
          17.05	(1.46966422e+00 3.97145167e-07 0.00000000e+00)	0.00000000e+00
           17.1	(1.47127200e+00 4.05777124e-07 0.00000000e+00)	0.00000000e+00
          17.15	(1.47287152e+00 4.14374488e-07 0.00000000e+00)	0.00000000e+00
           17.2	(1.47446283e+00 4.22935000e-07 0.00000000e+00)	0.00000000e+00
          17.25	(1.47604598e+00 4.31456548e-07 0.00000000e+00)	0.00000000e+00
           17.3	(1.47762099e+00 4.39937159e-07 0.00000000e+00)	0.00000000e+00
          17.35	(1.47918793e+00 4.48374989e-07 0.00000000e+00)	0.00000000e+00
           17.4	(1.48074683e+00 4.56768316e-07 0.00000000e+00)	0.00000000e+00
          17.45	(1.48229772e+00 4.65115526e-07 0.00000000e+00)	0.00000000e+00
           17.5	(1.48384067e+00 4.73415110e-07 0.00000000e+00)	0.00000000e+00
          17.55	(1.48537570e+00 4.81665653e-07 0.00000000e+00)	0.00000000e+00
           17.6	(1.48690285e+00 4.89865847e-07 0.00000000e+00)	0.00000000e+00
          17.65	(1.48842218e+00 4.98014450e-07 0.00000000e+00)	0.00000000e+00
           17.7	(1.48993372e+00 5.06110272e-07 0.00000000e+00)	0.00000000e+00
          17.75	(1.49143751e+00 5.14152224e-07 0.00000000e+00)	0.00000000e+00
           17.8	(1.49293359e+00 5.22139271e-07 0.00000000e+00)	0.00000000e+00
          17.85	(1.49442200e+00 5.30070433e-07 0.00000000e+00)	0.00000000e+00
           17.9	(1.49590279e+00 5.37944766e-07 0.00000000e+00)	0.00000000e+00
          17.95	(1.49737600e+00 5.45761393e-07 0.00000000e+00)	0.00000000e+00
             18	(1.49884165e+00 5.53519488e-07 0.00000000e+00)	0.00000000e+00
          18.05	(1.50029980e+00 5.61218264e-07 0.00000000e+00)	0.00000000e+00
           18.1	(1.50175048e+00 5.68856982e-07 0.00000000e+00)	0.00000000e+00
          18.15	(1.50319373e+00 5.76434943e-07 0.00000000e+00)	0.00000000e+00
           18.2	(1.50462959e+00 5.83951456e-07 0.00000000e+00)	0.00000000e+00
          18.25	(1.50605811e+00 5.91405873e-07 0.00000000e+00)	0.00000000e+00
           18.3	(1.50747931e+00 5.98797588e-07 0.00000000e+00)	0.00000000e+00
          18.35	(1.50889323e+00 6.06126032e-07 0.00000000e+00)	0.00000000e+00
           18.4	(1.51029992e+00 6.13390657e-07 0.00000000e+00)	0.00000000e+00
          18.45	(1.51169942e+00 6.20590940e-07 0.00000000e+00)	0.00000000e+00
           18.5	(1.51309175e+00 6.27726389e-07 0.00000000e+00)	0.00000000e+00
          18.55	(1.51447696e+00 6.34796538e-07 0.00000000e+00)	0.00000000e+00
           18.6	(1.51585509e+00 6.41800946e-07 0.00000000e+00)	0.00000000e+00
          18.65	(1.51722617e+00 6.48739200e-07 0.00000000e+00)	0.00000000e+00
           18.7	(1.51859024e+00 6.55610905e-07 0.00000000e+00)	0.00000000e+00
          18.75	(1.51994733e+00 6.62415694e-07 0.00000000e+00)	0.00000000e+00
           18.8	(1.52129749e+00 6.69153220e-07 0.00000000e+00)	0.00000000e+00
          18.85	(1.52264074e+00 6.75823159e-07 0.00000000e+00)	0.00000000e+00
           18.9	(1.52397713e+00 6.82425208e-07 0.00000000e+00)	0.00000000e+00
          18.95	(1.52530669e+00 6.88959085e-07 0.00000000e+00)	0.00000000e+00
             19	(1.52662946e+00 6.95424529e-07 0.00000000e+00)	0.00000000e+00
          19.05	(1.52794547e+00 7.01821300e-07 0.00000000e+00)	0.00000000e+00
           19.1	(1.52925476e+00 7.08149176e-07 0.00000000e+00)	0.00000000e+00
          19.15	(1.53055736e+00 7.14407957e-07 0.00000000e+00)	0.00000000e+00