# Force coefficients
# liftDir       : (0.00000000e+00 1.00000000e+00 0.00000000e+00)
# dragDir       : (1.00000000e+00 0.00000000e+00 0.00000000e+00)
# pitchAxis     : (0.00000000e+00 0.00000000e+00 1.00000000e+00)
# magUInf       : 1.00000000e+00
# lRef          : 1.00000000e+00
# Aref          : 2.00000000e+00
# CofR          : (0.00000000e+00 0.00000000e+00 0.00000000e+00)
# Time          	Cm              	Cd              	Cl              	Cl(f)           	Cl(r)           
0.05            	-1.50781554e-08	8.28126644e+01	-2.69318009e-06	-1.36166820e-06	-1.33151189e-06
0.1             	-9.67861026e-09	-2.72739288e+01	8.71291368e-06	4.34677823e-06	4.36613545e-06
0.15            	-1.19105473e-08	6.89448131e+00	-5.94416731e-06	-2.98399420e-06	-2.96017311e-06
0.2             	-6.51664356e-09	4.67262235e+00	1.99783391e-06	9.92400312e-07	1.00543360e-06
0.25            	-4.88906207e-09	4.46007165e+00	-5.37946657e-07	-2.73862391e-07	-2.64084267e-07
0.3             	-3.49418669e-09	4.17701197e+00	1.11432673e-07	5.22221496e-08	5.92105230e-08
0.35            	-2.69798683e-09	3.93512186e+00	3.59607711e-08	1.52823987e-08	2.06783724e-08
0.4             	-2.24546621e-09	3.73621679e+00	1.27190475e-07	6.13497715e-08	6.58407039e-08
0.45            	-1.92464522e-09	3.57545085e+00	7.62827947e-09	1.88949452e-09	5.73878495e-09
0.5             	-1.68043016e-09	3.44369340e+00	4.11289525e-08	1.88840461e-08	2.22449064e-08
0.55            	-1.51846015e-09	3.33358046e+00	2.96648936e-08	1.33139867e-08	1.63509070e-08
0.6             	-1.28186556e-09	3.24007073e+00	-6.09485079e-09	-4.32929096e-09	-1.76555983e-09
0.65            	-1.07320786e-09	3.15971311e+00	-7.46764838e-08	-3.84114498e-08	-3.62650341e-08
0.7             	-8.41777320e-10	3.09001250e+00	-4.63910188e-08	-2.40372867e-08	-2.23537321e-08
0.75            	-6.25507467e-10	3.02908008e+00	-5.31905669e-08	-2.72207909e-08	-2.59697760e-08
0.8             	-4.18611880e-10	2.97544468e+00	-6.39078551e-08	-3.23725394e-08	-3.15353157e-08
0.85            	-2.13473631e-10	2.92794216e+00	-9.19014097e-08	-4.61641785e-08	-4.57372312e-08
0.9             	1.13275308e-11	2.88563978e+00	-1.17682570e-07	-5.88299573e-08	-5.88526123e-08
0.95            	2.63081165e-10	2.84778106e+00	-1.52673318e-07	-7.60735780e-08	-7.65997403e-08
1               	5.56030040e-10	2.81374615e+00	-1.87098425e-07	-9.29931825e-08	-9.41052426e-08
1.05            	6.77172160e-10	2.78302163e+00	-2.18060970e-07	-1.08353313e-07	-1.09707657e-07
1.1             	8.76704816e-10	2.75517909e+00	2.88993019e-07	1.45373214e-07	1.43619805e-07
1.15            	8.78372849e-10	2.72985715e+00	-7.96326572e-08	-3.89379557e-08	-4.06947014e-08
1.2             	9.13683664e-10	2.70674961e+00	9.92457885e-09	5.87597309e-09	4.04860576e-09
1.25            	9.38878272e-10	2.68559536e+00	1.40965711e-08	7.98716383e-09	6.10940728e-09
1.3             	9.66419927e-10	2.66616990e+00	6.60741588e-09	4.27012787e-09	2.33728801e-09
1.35            	1.01445162e-09	2.64827957e+00	6.02650182e-09	4.02770253e-09	1.99879929e-09
1.4             	1.06771448e-09	2.63175679e+00	3.53010724e-09	2.83276810e-09	6.97339143e-10
1.45            	1.12606097e-09	2.61645519e+00	1.81384840e-09	2.03298517e-09	-2.19136773e-10
1.5             	1.18924425e-09	2.60224700e+00	5.55269156e-10	1.46687882e-09	-9.11609668e-10
1.55            	1.25438326e-09	2.58901992e+00	-2.29508742e-09	1.06839547e-10	-2.40192697e-09
1.6             	1.31868635e-09	2.57667539e+00	-1.12217912e-08	-4.29220926e-09	-6.92958197e-09
1.65            	1.33133789e-09	2.56512602e+00	-4.95418877e-09	-1.14575650e-09	-3.80843228e-09
1.7             	1.34549461e-09	2.55429476e+00	-3.48808632e-09	-3.98548551e-10	-3.08953777e-09
1.75            	1.37121994e-09	2.54411300e+00	-2.51582649e-09	1.13306691e-10	-2.62913318e-09
1.8             	1.40690389e-09	2.53451966e+00	-1.82812762e-09	4.92840084e-10	-2.32096770e-09
1.85            	1.45001805e-09	2.52546036e+00	1.44632813e-10	1.52233446e-09	-1.37770165e-09
1.9             	1.49776277e-09	2.51688645e+00	6.57404699e-10	1.82646512e-09	-1.16906042e-09
1.95            	1.54931773e-09	2.50875447e+00	2.61596533e-09	2.85730039e-09	-2.41335060e-10
2               	1.60284435e-09	2.50102532e+00	3.04523431e-09	3.12546150e-09	-8.02271962e-11
2.05            	1.65776707e-09	2.49366384e+00	3.60487698e-09	3.46020555e-09	1.44671423e-10
2.1             	1.71360367e-09	2.48663845e+00	4.33863530e-09	3.88292132e-09	4.55713980e-10
2.15            	1.76980271e-09	2.47992072e+00	5.23438528e-09	4.38699534e-09	8.47389934e-10
2.2             	1.82581187e-09	2.47348492e+00	6.28185644e-09	4.96674008e-09	1.31511635e-09
2.25            	1.88112325e-09	2.46730781e+00	7.46987055e-09	5.61605853e-09	1.85381202e-09
2.3             	1.93527055e-09	2.46136840e+00	8.76772095e-09	6.31913103e-09	2.44858993e-09
2.35            	1.98784533e-09	2.45564768e+00	1.01247438e-08	7.05021722e-09	3.07452656e-09
2.4             	2.03849829e-09	2.45012837e+00	1.14926426e-08	7.78481957e-09	3.70782299e-09
2.45            	2.08605316e-09	2.44479481e+00	6.43026986e-09	5.30118809e-09	1.12908177e-09
2.5             	2.13345402e-09	2.43963280e+00	8.22907536e-09	6.24799171e-09	1.98108366e-09
2.55            	2.17902473e-09	2.43462943e+00	9.74466581e-09	7.05135763e-09	2.69330818e-09
2.6             	2.22192297e-09	2.42977300e+00	1.12053713e-08	7.82460862e-09	3.38076268e-09
2.65            	2.26169195e-09	2.42505280e+00	1.26042477e-08	8.56381580e-09	4.04043190e-09
2.7             	2.29811904e-09	2.42045912e+00	1.39394021e-08	9.26782009e-09	4.67158201e-09
2.75            	2.33104602e-09	2.41598311e+00	1.52018009e-08	9.93194646e-09	5.26985441e-09
2.8             	2.36031080e-09	2.41161670e+00	1.63799036e-08	1.05502626e-08	5.82964100e-09
2.85            	2.38572682e-09	2.40735250e+00	1.74622903e-08	1.11168720e-08	6.34541835e-09
2.9             	2.40705064e-09	2.40318385e+00	1.84353789e-08	1.16247401e-08	6.81063881e-09
2.95            	2.42393114e-09	2.39910465e+00	1.92887424e-08	1.20683023e-08	7.22044004e-09
3               	2.43582037e-09	2.39510930e+00	2.00123134e-08	1.24419771e-08	7.57033633e-09
3.05            	2.44184006e-09	2.39119271e+00	2.05972174e-08	1.27404488e-08	7.85676865e-09
3.1             	2.48698812e-09	2.38735058e+00	2.11930711e-08	1.30835237e-08	8.10954745e-09
3.15            	2.49759654e-09	2.38357796e+00	-3.77420402e-07	-1.86212604e-07	-1.91207797e-07
3.2             	2.77960021e-09	2.37987126e+00	-5.51050839e-09	2.43460209e-11	-5.53485441e-09
3.25            	3.00046984e-09	2.37622716e+00	-1.03721621e-07	-4.88603407e-08	-5.48612804e-08
3.3             	3.22576720e-09	2.37264218e+00	-9.12716041e-08	-4.24100348e-08	-4.88615692e-08
3.35            	3.43133611e-09	2.36911362e+00	-8.47302799e-08	-3.89338039e-08	-4.57964761e-08
3.4             	3.61202923e-09	2.36563867e+00	-7.79444191e-08	-3.53601803e-08	-4.25842388e-08
3.45            	3.76766280e-09	2.36221481e+00	-7.12095865e-08	-3.18371305e-08	-3.93724560e-08
3.5             	3.90136273e-09	2.35883996e+00	-6.45742471e-08	-2.83857608e-08	-3.61884863e-08
3.55            	4.01548913e-09	2.35551190e+00	-5.81931646e-08	-2.50810931e-08	-3.31120714e-08
3.6             	4.11210944e-09	2.35222876e+00	-5.20324685e-08	-2.19041248e-08	-3.01283437e-08
3.65            	4.19913461e-09	2.34898906e+00	-7.23386884e-08	-3.19702096e-08	-4.03684788e-08
3.7             	4.28213592e-09	2.34579058e+00	-6.51461736e-08	-2.82909509e-08	-3.68552227e-08
3.75            	4.35472173e-09	2.34263226e+00	-5.97763603e-08	-2.55334584e-08	-3.42429019e-08
3.8             	4.41593164e-09	2.33951274e+00	-5.51013708e-08	-2.31347538e-08	-3.19666171e-08
3.85            	4.46624169e-09	2.33643077e+00	-5.11955468e-08	-2.11315317e-08	-3.00640151e-08
3.9             	4.50676337e-09	2.33338521e+00	-4.80121881e-08	-1.94993307e-08	-2.85128574e-08
3.95            	4.53878256e-09	2.33037500e+00	-4.55124015e-08	-1.82174182e-08	-2.72949833e-08
4               	4.56354189e-09	2.32739918e+00	-4.36559677e-08	-1.72644420e-08	-2.63915257e-08
4.05            	4.58216164e-09	2.32445682e+00	-4.24025281e-08	-1.66191024e-08	-2.57834257e-08
4.1             	4.59562591e-09	2.32154711e+00	-4.17044518e-08	-1.62566000e-08	-2.54478518e-08
4.15            	4.60479046e-09	2.31866926e+00	-4.15083152e-08	-1.61493671e-08	-2.53589481e-08
4.2             	4.54955248e-09	2.31582288e+00	-5.42330541e-07	-2.66615718e-07	-2.75714823e-07
4.25            	4.80237636e-09	2.31300634e+00	-8.47202491e-08	-3.75577482e-08	-4.71625009e-08
4.3             	4.97831061e-09	2.31022007e+00	-2.09695644e-07	-9.98695112e-08	-1.09826132e-07
4.35            	5.16339850e-09	2.30746297e+00	-1.97583026e-07	-9.36281145e-08	-1.03954912e-07
4.4             	5.33330642e-09	2.30473460e+00	-1.92840326e-07	-9.10868566e-08	-1.01753469e-07
4.45            	5.48310915e-09	2.30203443e+00	-1.87231564e-07	-8.81326727e-08	-9.90988909e-08
4.5             	5.61280995e-09	2.29936199e+00	-1.81155749e-07	-8.49650645e-08	-9.61906844e-08
4.55            	5.72387569e-09	2.29671682e+00	-1.74576364e-07	-8.15643062e-08	-9.30120575e-08
4.6             	5.81788812e-09	2.29409849e+00	-1.67437496e-07	-7.79008599e-08	-8.95366362e-08
4.65            	5.89620905e-09	2.29150658e+00	-1.59662478e-07	-7.39350301e-08	-8.57274482e-08
4.7             	5.95993200e-09	2.28894071e+00	-1.51181161e-07	-6.96306485e-08	-8.15505125e-08
4.75            	6.00991886e-09	2.28640050e+00	-1.41943130e-07	-6.49616461e-08	-7.69814838e-08
4.8             	6.04680619e-09	2.28388559e+00	-1.31952068e-07	-5.99292280e-08	-7.20228404e-08
4.85            	6.07087387e-09	2.28139569e+00	-1.21034927e-07	-5.44465898e-08	-6.65883376e-08
4.9             	6.08284807e-09	2.27893040e+00	-1.09737673e-07	-4.87859882e-08	-6.09516844e-08
4.95            	6.08408801e-09	2.27648948e+00	-9.74078926e-08	-4.26198583e-08	-5.47880343e-08
5               	6.07487414e-09	2.27407260e+00	-8.45373376e-08	-3.61937947e-08	-4.83435430e-08
5.05            	6.05410422e-09	2.27167936e+00	-7.13539500e-08	-2.96228708e-08	-4.17310792e-08
5.1             	6.02272577e-09	2.26930959e+00	-5.73891807e-08	-2.26718646e-08	-3.47173161e-08
5.15            	5.97361325e-09	2.26696299e+00	-4.42641198e-08	-1.61584466e-08	-2.81056731e-08
5.2             	5.91941018e-09	2.26463937e+00	-2.87858175e-08	-8.47349855e-09	-2.03123189e-08
5.25            	5.85718836e-09	2.26233828e+00	-1.61208801e-08	-2.20325171e-09	-1.39176284e-08
5.3             	5.78787324e-09	2.26005961e+00	-9.94534127e-09	8.15202609e-10	-1.07605439e-08
5.35            	5.71131221e-09	2.25780304e+00	1.44427932e-09	6.43345187e-09	-4.98917254e-09
5.4             	5.62885011e-09	2.25556837e+00	1.30272934e-08	1.21424968e-08	8.84796611e-10
5.45            	5.54087682e-09	2.25335536e+00	2.38259865e-08	1.74538701e-08	6.37211641e-09
5.5             	5.44837551e-09	2.25116378e+00	3.45862250e-08	2.27414880e-08	1.18447370e-08
5.55            	5.35261506e-09	2.24899338e+00	4.55453990e-08	2.81253146e-08	1.74200845e-08
5.6             	5.25487382e-09	2.24684393e+00	5.66375808e-08	3.35736642e-08	2.30639166e-08
5.65            	5.12420335e-09	2.24471527e+00	-7.38463455e-08	-3.17989694e-08	-4.20473761e-08
5.7             	5.06476127e-09	2.24260702e+00	-6.00804239e-08	-2.49754507e-08	-3.51049732e-08
5.75            	5.03273406e-09	2.24051904e+00	-4.66857618e-08	-1.83101468e-08	-2.83756150e-08
5.8             	5.00636403e-09	2.23845110e+00	-3.22913752e-08	-1.11393236e-08	-2.11520516e-08
5.85            	4.97527636e-09	2.23640298e+00	-1.72030821e-08	-3.62626468e-09	-1.35768174e-08
5.9             	4.93547276e-09	2.23437447e+00	-1.65296905e-09	4.10898823e-09	-5.76195728e-09
5.95            	4.88582830e-09	2.23236538e+00	1.41550158e-08	1.19633362e-08	2.19167961e-09
6               	4.82554161e-09	2.23037552e+00	2.61782562e-08	1.79146697e-08	8.26358650e-09
6.05            	4.75736733e-09	2.22840464e+00	4.19763562e-08	2.57455454e-08	1.62308107e-08
6.1             	4.68076442e-09	2.22645256e+00	5.74286822e-08	3.33951055e-08	2.40335767e-08
6.15            	4.59582667e-09	2.22451910e+00	7.25086837e-08	4.08501685e-08	3.16585152e-08
6.2             	4.50306676e-09	2.22260405e+00	8.72050844e-08	4.81056090e-08	3.90994754e-08
6.25            	4.40325655e-09	2.22070722e+00	1.01783380e-07	5.52949464e-08	4.64884333e-08
6.3             	4.29723056e-09	2.21882842e+00	1.16797036e-07	6.26957485e-08	5.41012874e-08
6.35            	4.18571124e-09	2.21696747e+00	1.33014101e-07	7.06927616e-08	6.23213391e-08
6.4             	4.06916192e-09	2.21512416e+00	1.51207293e-07	7.96728082e-08	7.15344844e-08
6.45            	3.94770045e-09	2.21329833e+00	1.71953377e-07	8.99243887e-08	8.20289878e-08
6.5             	3.82110614e-09	2.21148978e+00	1.95491384e-07	1.01566798e-07	9.39245857e-08
6.55            	3.68889748e-09	2.20969831e+00	2.21633222e-07	1.14505509e-07	1.07127714e-07
6.6             	3.55048561e-09	2.20792375e+00	2.49848747e-07	1.28474859e-07	1.21373888e-07
6.65            	3.39907668e-09	2.20616610e+00	2.20886115e-07	1.13842134e-07	1.07043981e-07
6.7             	3.26995442e-09	2.20442461e+00	2.99858640e-07	1.53199274e-07	1.46659366e-07
6.75            	3.12549805e-09	2.20269968e+00	3.17605489e-07	1.61928242e-07	1.55677246e-07
6.8             	2.97589620e-09	2.20099087e+00	3.48798702e-07	1.77375247e-07	1.71423455e-07
6.85            	2.81924436e-09	2.19929806e+00	3.76824610e-07	1.91231549e-07	1.85593060e-07
6.9             	2.62244010e-09	2.19762045e+00	1.74598487e-07	8.99216837e-08	8.46768035e-08
6.95            	2.49467022e-09	2.19595914e+00	1.95703475e-07	1.00346408e-07	9.53570671e-08
7               	2.39067010e-09	2.19431332e+00	2.15120635e-07	1.09950988e-07	1.05169648e-07
7.05            	2.28800796e-09	2.19268282e+00	2.30873382e-07	1.17724699e-07	1.13148683e-07
7.1             	2.18049884e-09	2.19106747e+00	2.47024849e-07	1.25692924e-07	1.21331926e-07
7.15            	2.06584456e-09	2.18946712e+00	2.62708317e-07	1.33420003e-07	1.29288314e-07
7.2             	1.94407940e-09	2.18788160e+00	2.77461342e-07	1.40674750e-07	1.36786592e-07
7.25            	1.81608482e-09	2.18631074e+00	2.91091561e-07	1.47361865e-07	1.43729696e-07
7.3             	1.68293614e-09	2.18475441e+00	3.03445715e-07	1.53405794e-07	1.50039921e-07
7.35            	1.54567842e-09	2.18321242e+00	3.14456733e-07	1.58774045e-07	1.55682688e-07
7.4             	1.40525779e-09	2.18168464e+00	3.24112609e-07	1.63461562e-07	1.60651047e-07
7.45            	1.26250895e-09	2.18017091e+00	3.32440930e-07	1.67482974e-07	1.64957956e-07
7.5             	1.11815725e-09	2.17867107e+00	3.39493116e-07	1.70864715e-07	1.68628401e-07
7.55            	9.72825129e-10	2.17718498e+00	3.45336491e-07	1.73641071e-07	1.71695421e-07
7.6             	8.27039721e-10	2.17571248e+00	3.50045023e-07	1.75849551e-07	1.74195472e-07
7.65            	6.81243899e-10	2.17425344e+00	3.53699417e-07	1.77530952e-07	1.76168465e-07
7.7             	5.35804191e-10	2.17280771e+00	3.56374794e-07	1.78723201e-07	1.77651593e-07
7.75            	3.91021645e-10	2.17137514e+00	3.58152964e-07	1.79467503e-07	1.78685460e-07
7.8             	2.47137699e-10	2.16995560e+00	3.59102395e-07	1.79798335e-07	1.79304060e-07
7.85            	1.04344433e-10	2.16854893e+00	3.59296877e-07	1.79752783e-07	1.79544094e-07
7.9             	-3.72079626e-11	2.16715501e+00	3.58803826e-07	1.79364705e-07	1.79439121e-07
7.95            	-1.77408045e-10	2.16577370e+00	3.57682650e-07	1.78663917e-07	1.79018733e-07
8               	-3.16173549e-10	2.16440486e+00	3.55995696e-07	1.77681674e-07	1.78314021e-07
8.05            	-4.53454666e-10	2.16304836e+00	3.53796448e-07	1.76444769e-07	1.77351678e-07
8.1             	-5.89215885e-10	2.16170407e+00	3.51134216e-07	1.74977892e-07	1.76156324e-07
8.15            	-7.23437677e-10	2.16037186e+00	3.48058885e-07	1.73306005e-07	1.74752880e-07
8.2             	-8.56119528e-10	2.15905159e+00	3.44613937e-07	1.71450849e-07	1.73163088e-07
8.25            	-9.87275105e-10	2.15774314e+00	3.40838506e-07	1.69431978e-07	1.71406528e-07
8.3             	-1.11692532e-09	2.15644639e+00	3.36772326e-07	1.67269238e-07	1.69503088e-07
8.35            	-1.24510052e-09	2.15516121e+00	3.32449089e-07	1.64979444e-07	1.67469645e-07
8.4             	-1.37183543e-09	2.15388748e+00	3.27902952e-07	1.62579641e-07	1.65323311e-07
8.45            	-1.49716928e-09	2.15262507e+00	3.23163611e-07	1.60084636e-07	1.63078975e-07
8.5             	-1.62114461e-09	2.15137388e+00	3.18259925e-07	1.57508818e-07	1.60751107e-07
8.55            	-1.74380637e-09	2.15013378e+00	3.13213973e-07	1.54863180e-07	1.58350793e-07
8.6             	-1.86519849e-09	2.14890465e+00	3.08056861e-07	1.52163232e-07	1.55893629e-07
8.65            	-1.98536843e-09	2.14768638e+00	3.02805506e-07	1.49417384e-07	1.53388121e-07
8.7             	-2.10436067e-09	2.14647885e+00	2.97480618e-07	1.46635948e-07	1.50844670e-07
8.75            	-2.22221900e-09	2.14528196e+00	2.92099533e-07	1.43827547e-07	1.48271985e-07
8.8             	-2.33898610e-09	2.14409558e+00	2.86674820e-07	1.40998424e-07	1.45676396e-07
8.85            	-2.45469750e-09	2.14291962e+00	2.81244415e-07	1.38167510e-07	1.43076905e-07
8.9             	-2.56939472e-09	2.14175396e+00	2.75801400e-07	1.35331305e-07	1.40470095e-07
8.95            	-2.68311203e-09	2.14059850e+00	2.70366864e-07	1.32500320e-07	1.37866544e-07
9               	-2.79588035e-09	2.13945313e+00	2.64952536e-07	1.29680388e-07	1.35272149e-07
9.05            	-2.90773039e-09	2.13831775e+00	2.59564020e-07	1.26874279e-07	1.32689740e-07
9.1             	-2.98927248e-09	2.13719225e+00	4.47567858e-07	2.20794657e-07	2.26773201e-07
9.15            	-3.13498432e-09	2.13607654e+00	4.33541677e-07	2.13635854e-07	2.19905823e-07
9.2             	-3.30092679e-09	2.13497051e+00	4.25573597e-07	2.09485872e-07	2.16087725e-07
9.25            	-3.47062048e-09	2.13387406e+00	4.17685080e-07	2.05371919e-07	2.12313160e-07
9.3             	-3.63655946e-09	2.13278710e+00	4.10022898e-07	2.01374890e-07	2.08648008e-07
9.35            	-3.79607858e-09	2.13170953e+00	4.02490829e-07	1.97449336e-07	2.05041493e-07
9.4             	-3.94888700e-09	2.13064126e+00	3.95065371e-07	1.93583798e-07	2.01481572e-07
9.45            	-4.09637791e-09	2.12958222e+00	3.82989209e-07	1.87398227e-07	1.95590983e-07
9.5             	-4.23691632e-09	2.12853225e+00	3.76104512e-07	1.83815340e-07	1.92289172e-07
9.55            	-4.37244514e-09	2.12749131e+00	3.69141493e-07	1.80198302e-07	1.88943192e-07
9.6             	-4.50391208e-09	2.12645929e+00	3.62271689e-07	1.76631932e-07	1.85639756e-07
9.65            	-4.63194594e-09	2.12543610e+00	3.55491897e-07	1.73114003e-07	1.82377894e-07
9.7             	-4.75698237e-09	2.12442167e+00	3.48812222e-07	1.69649129e-07	1.79163093e-07
9.75            	-4.87915807e-09	2.12341590e+00	3.44731052e-07	1.67486368e-07	1.77244684e-07
9.8             	-5.00056225e-09	2.12241871e+00	3.36153913e-07	1.63076394e-07	1.73077519e-07
9.85            	-5.11943314e-09	2.12143002e+00	3.30176734e-07	1.59968934e-07	1.70207800e-07
9.9             	-5.23614727e-09	2.12044973e+00	3.23776590e-07	1.56652148e-07	1.67124442e-07
9.95            	-5.35069821e-09	2.11947777e+00	3.17563612e-07	1.53431108e-07	1.64132504e-07
10              	-5.46318549e-09	2.11851405e+00	3.11499674e-07	1.50286651e-07	1.61213022e-07
10.05           	-5.57372223e-09	2.11755850e+00	3.05569858e-07	1.47211207e-07	1.58358651e-07
10.1            	-5.68240508e-09	2.11661103e+00	2.99775290e-07	1.44205240e-07	1.55570050e-07
10.15           	-5.78931162e-09	2.11567157e+00	2.94115024e-07	1.41268201e-07	1.52846824e-07
10.2            	-5.89450497e-09	2.11474005e+00	2.88586773e-07	1.38398881e-07	1.50187891e-07
10.25           	-5.99803468e-09	2.11381637e+00	2.83190718e-07	1.35597324e-07	1.47593394e-07
10.3            	-6.10282344e-09	2.11290041e+00	2.51413450e-07	1.19603902e-07	1.31809548e-07
10.35           	-6.18606943e-09	2.11199222e+00	2.67320469e-07	1.27474165e-07	1.39846304e-07
10.4            	-6.26880991e-09	2.11109167e+00	2.57093831e-07	1.22278106e-07	1.34815725e-07
10.45           	-6.33863261e-09	2.11019787e+00	3.80153706e-07	1.83738220e-07	1.96415485e-07
10.5            	-6.44586571e-09	2.10931294e+00	2.46107056e-07	1.16607663e-07	1.29499394e-07
10.55           	-6.52037256e-09	2.10843470e+00	2.80862044e-07	1.33910650e-07	1.46951395e-07
10.6            	-6.60032718e-09	2.10756397e+00	2.72229873e-07	1.29514609e-07	1.42715264e-07
10.65           	-6.68167061e-09	2.10670050e+00	2.68285112e-07	1.27460886e-07	1.40824227e-07
10.7            	-6.76390249e-09	2.10584424e+00	2.63618993e-07	1.25045594e-07	1.38573399e-07
10.75           	-6.84626145e-09	2.10499512e+00	2.59147320e-07	1.22727398e-07	1.36419921e-07
10.8            	-6.92833572e-09	2.10415307e+00	2.54774569e-07	1.20458949e-07	1.34315620e-07
10.85           	-7.00986831e-09	2.10331804e+00	2.50521024e-07	1.18250644e-07	1.32270380e-07
10.9            	-7.09070325e-09	2.10248995e+00	2.46353596e-07	1.16086095e-07	1.30267501e-07
10.95           	-7.17071010e-09	2.10166876e+00	2.42331297e-07	1.13994938e-07	1.28336358e-07
11              	-7.24980622e-09	2.10085438e+00	2.38427704e-07	1.11964046e-07	1.26463658e-07
11.05           	-7.32791884e-09	2.10004676e+00	2.34646055e-07	1.09995109e-07	1.24650946e-07
11.1            	-7.40498503e-09	2.09924584e+00	2.30982649e-07	1.08086340e-07	1.22896310e-07
11.15           	-7.48094524e-09	2.09845156e+00	2.27434874e-07	1.06236492e-07	1.21198382e-07
11.2            	-7.55574210e-09	2.09766386e+00	2.23999834e-07	1.04444175e-07	1.19555659e-07
11.25           	-7.62932113e-09	2.09688267e+00	2.20674493e-07	1.02707926e-07	1.17966568e-07
11.3            	-7.70162810e-09	2.09610795e+00	2.17455973e-07	1.01026358e-07	1.16429615e-07
11.35           	-7.77261105e-09	2.09533963e+00	2.14341284e-07	9.93980311e-08	1.14943253e-07
11.4            	-7.84221881e-09	2.09457767e+00	2.11323910e-07	9.78197362e-08	1.13504174e-07
11.45           	-7.91040408e-09	2.09382199e+00	2.08411581e-07	9.62953863e-08	1.12116194e-07
11.5            	-7.97712477e-09	2.09307255e+00	2.05591708e-07	9.48187294e-08	1.10772979e-07
11.55           	-8.04233502e-09	2.09232930e+00	2.02864608e-07	9.33899688e-08	1.09474639e-07
11.6            	-8.10598457e-09	2.09159217e+00	2.00228700e-07	9.20083653e-08	1.08220334e-07
11.65           	-8.16801313e-09	2.09086113e+00	1.97679128e-07	9.06715509e-08	1.07007577e-07
11.7            	-8.22838281e-09	2.09013611e+00	1.95214638e-07	8.93789364e-08	1.05835702e-07
11.75           	-8.28704646e-09	2.08941706e+00	1.92831979e-07	8.81289432e-08	1.04703036e-07
11.8            	-8.34395909e-09	2.08870393e+00	1.90528700e-07	8.69203910e-08	1.03608309e-07
11.85           	-8.39908102e-09	2.08799668e+00	1.88302185e-07	8.57520116e-08	1.02550174e-07
11.9            	-8.45237526e-09	2.08729525e+00	1.86150014e-07	8.46226316e-08	1.01527382e-07
11.95           	-8.50380763e-09	2.08659960e+00	1.84070041e-07	8.35312126e-08	1.00538828e-07
12              	-8.55334551e-09	2.08590968e+00	1.82058799e-07	8.24760540e-08	9.95827450e-08
12.05           	-8.60095749e-09	2.08522543e+00	1.80114808e-07	8.14564466e-08	9.86583616e-08
12.1            	-8.64661372e-09	2.08454682e+00	1.78235344e-07	8.04710580e-08	9.77642855e-08
12.15           	-8.69028557e-09	2.08387380e+00	1.76424666e-07	7.95220477e-08	9.69026188e-08
12.2            	-8.73194995e-09	2.08320631e+00	1.74674048e-07	7.86050739e-08	9.60689738e-08
12.25           	-8.77158952e-09	2.08254432e+00	1.72958129e-07	7.77074748e-08	9.52506538e-08
12.3            	-8.80916832e-09	2.08188779e+00	1.71318151e-07	7.68499069e-08	9.44682436e-08
12.35           	-8.84466719e-09	2.08123667e+00	1.69726801e-07	7.60187333e-08	9.37080677e-08
12.4            	-8.85678565e-09	2.08059084e+00	2.99682009e-07	1.40984219e-07	1.58697790e-07
12.45           	-8.91242889e-09	2.07995041e+00	2.92503361e-07	1.37339252e-07	1.55164109e-07
12.5            	-8.98041516e-09	2.07931526e+00	2.88764380e-07	1.35401775e-07	1.53362605e-07
12.55           	-9.04931363e-09	2.07868534e+00	2.85345151e-07	1.33623262e-07	1.51721889e-07
12.6            	-9.11400510e-09	2.07806061e+00	2.82111855e-07	1.31941923e-07	1.50169933e-07
12.65           	-9.17101685e-09	2.07744104e+00	2.96056114e-07	1.38857040e-07	1.57199074e-07
12.7            	-9.23425267e-09	2.07682659e+00	2.79931397e-07	1.30731446e-07	1.49199951e-07
12.75           	-9.29092633e-09	2.07621721e+00	2.79926438e-07	1.30672293e-07	1.49254146e-07
12.8            	-9.34269135e-09	2.07561287e+00	2.76498325e-07	1.28906471e-07	1.47591854e-07
12.85           	-9.38892398e-09	2.07501353e+00	2.73410175e-07	1.27316164e-07	1.46094011e-07
12.9            	-9.42982311e-09	2.07441914e+00	2.70426598e-07	1.25783476e-07	1.44643122e-07
12.95           	-9.46578471e-09	2.07382968e+00	2.67538727e-07	1.24303579e-07	1.43235148e-07
13              	-9.49720697e-09	2.07324509e+00	2.64730623e-07	1.22868105e-07	1.41862519e-07
13.05           	-9.52443251e-09	2.07266535e+00	2.61993043e-07	1.21472089e-07	1.40520954e-07
13.1            	-9.54774681e-09	2.07209042e+00	2.59319742e-07	1.20112124e-07	1.39207618e-07
13.15           	-9.56738890e-09	2.07152026e+00	2.56706177e-07	1.18785699e-07	1.37920477e-07
13.2            	-9.58356284e-09	2.07095484e+00	2.54149403e-07	1.17491139e-07	1.36658265e-07
13.25           	-9.59644440e-09	2.07039412e+00	2.51645630e-07	1.16226370e-07	1.35419259e-07
13.3            	-9.60618837e-09	2.06983806e+00	2.49193396e-07	1.14990510e-07	1.34202887e-07
13.35           	-9.61293070e-09	2.06928663e+00	2.46789609e-07	1.13781874e-07	1.33007735e-07
13.4            	-9.61679389e-09	2.06873979e+00	2.44433039e-07	1.12599726e-07	1.31833314e-07
13.45           	-9.61788811e-09	2.06819751e+00	2.42121772e-07	1.11442998e-07	1.30678774e-07
13.5            	-9.61631387e-09	2.06765976e+00	2.39854184e-07	1.10310778e-07	1.29543406e-07
13.55           	-9.61216389e-09	2.06712650e+00	2.37628517e-07	1.09202095e-07	1.28426422e-07
13.6            	-9.60552335e-09	2.06659770e+00	2.35443492e-07	1.08116223e-07	1.27327269e-07
13.65           	-9.59647283e-09	2.06607332e+00	2.33297546e-07	1.07052300e-07	1.26245246e-07
13.7            	-9.58508752e-09	2.06555333e+00	2.31189301e-07	1.06009563e-07	1.25179738e-07
13.75           	-9.57143870e-09	2.06503770e+00	2.29117538e-07	1.04987330e-07	1.24130208e-07
13.8            	-9.55559407e-09	2.06452639e+00	2.27081009e-07	1.03984910e-07	1.23096099e-07
13.85           	-9.53761854e-09	2.06401937e+00	2.25079167e-07	1.03001965e-07	1.22077202e-07
13.9            	-9.51757478e-09	2.06351661e+00	2.23109204e-07	1.02037027e-07	1.21072177e-07
13.95           	-9.49552277e-09	2.06301807e+00	2.21170935e-07	1.01089945e-07	1.20080990e-07
14              	-9.47151961e-09	2.06252372e+00	2.19262878e-07	1.00159920e-07	1.19102959e-07
14.05           	-9.44562064e-09	2.06203354e+00	2.17383957e-07	9.92463580e-08	1.18137599e-07
14.1            	-9.41787969e-09	2.06154749e+00	2.15533555e-07	9.83488979e-08	1.17184657e-07
14.15           	-9.38834828e-09	2.06106553e+00	2.13710360e-07	9.74668316e-08	1.16243528e-07
14.2            	-9.35707714e-09	2.06058763e+00	2.11913396e-07	9.65996210e-08	1.15313775e-07
14.25           	-9.33243528e-09	2.06011270e+00	2.07209207e-07	9.42721682e-08	1.12937039e-07
14.3            	-9.29422753e-09	2.05964368e+00	1.92935426e-07	8.71734854e-08	1.05761940e-07
14.35           	-9.24199627e-09	2.05917756e+00	1.96052448e-07	8.87842278e-08	1.07268220e-07
14.4            	-9.19073587e-09	2.05871562e+00	1.92480955e-07	8.70497419e-08	1.05431214e-07
14.45           	-9.13931659e-09	2.05825757e+00	1.90931910e-07	8.63266386e-08	1.04605272e-07
14.5            	-9.08767262e-09	2.05780339e+00	1.88943752e-07	8.53842035e-08	1.03559549e-07
14.55           	-9.03541482e-09	2.05735305e+00	1.87094838e-07	8.45120041e-08	1.02582834e-07
14.6            	-8.98236043e-09	2.05690652e+00	1.85277841e-07	8.36565600e-08	1.01621281e-07
14.65           	-8.92841177e-09	2.05646376e+00	1.83502044e-07	8.28226105e-08	1.00679434e-07
14.7            	-8.87353257e-09	2.05602474e+00	1.81758476e-07	8.20057055e-08	9.97527706e-08
14.75           	-8.81771270e-09	2.05558944e+00	1.80051670e-07	8.12081223e-08	9.88435478e-08
14.8            	-8.76096227e-09	2.05515781e+00	1.78370223e-07	8.04241494e-08	9.79460740e-08
14.85           	-8.70329338e-09	2.05472983e+00	1.76714823e-07	7.96541183e-08	9.70607051e-08
14.9            	-8.64471994e-09	2.05430546e+00	1.75083113e-07	7.88968364e-08	9.61862763e-08
14.95           	-8.58525799e-09	2.05388467e+00	1.73473350e-07	7.81514170e-08	9.53219330e-08
15              	-8.52493353e-09	2.05346744e+00	1.71847205e-07	7.73986690e-08	9.44485360e-08
15.05           	-8.46373948e-09	2.05305372e+00	1.70258416e-07	7.66654686e-08	9.35929476e-08
15.1            	-8.40169069e-09	2.05264349e+00	1.68713412e-07	7.59550155e-08	9.27583969e-08
15.15           	-8.33881152e-09	2.05223672e+00	1.67182809e-07	7.52525930e-08	9.19302161e-08
15.2            	-8.27512013e-09	2.05183336e+00	1.65666514e-07	7.45581371e-08	9.11083774e-08
15.25           	-8.21063078e-09	2.05143339e+00	1.64167559e-07	7.38731490e-08	9.02944105e-08
15.3            	-8.14536037e-09	2.05103677e+00	1.62681880e-07	7.31955794e-08	8.94863002e-08
15.35           	-8.07932419e-09	2.05064348e+00	1.61210924e-07	7.25261377e-08	8.86847860e-08
15.4            	-8.01253809e-09	2.05025347e+00	1.59754007e-07	7.18644654e-08	8.78895416e-08
15.45           	-7.94501883e-09	2.04986671e+00	1.58310591e-07	7.12102766e-08	8.71003143e-08
15.5            	-7.87678280e-09	2.04948317e+00	1.56880400e-07	7.05634172e-08	8.63169828e-08
15.55           	-7.80784773e-09	2.04910282e+00	1.55462946e-07	6.99236255e-08	8.55393210e-08
15.6            	-7.73823290e-09	2.04872562e+00	1.54057784e-07	6.92906592e-08	8.47671250e-08
15.65           	-7.66795595e-09	2.04835154e+00	1.52664763e-07	6.86644254e-08	8.40003373e-08
15.7            	-7.59703740e-09	2.04798055e+00	1.51283029e-07	6.80444771e-08	8.32385519e-08
15.75           	-7.52549751e-09	2.04761261e+00	1.49912369e-07	6.74306870e-08	8.24816821e-08
15.8            	-7.45335682e-09	2.04724768e+00	1.48551831e-07	6.68225587e-08	8.17292724e-08