# Region type : patch outlet
#     Faces  : 10
#     Area   : 9.65749567e-02
#          Time	sum(phi)
           0.05	6.98342983e-04
            0.1	1.41505782e-03
           0.15	2.11564182e-03
            0.2	2.80504219e-03
           0.25	3.48402267e-03
            0.3	4.15348785e-03
           0.35	4.81407521e-03
            0.4	5.46637905e-03
           0.45	6.11088524e-03
            0.5	6.74804930e-03
           0.55	7.37824791e-03
            0.6	8.00182846e-03
           0.65	8.61910261e-03
            0.7	9.23034914e-03
           0.75	9.83581847e-03
            0.8	1.04357367e-02
           0.85	1.10303090e-02
            0.9	1.16197120e-02
           0.95	1.22041366e-02
              1	1.27837290e-02
           1.05	1.33586387e-02
            1.1	1.39289783e-02
           1.15	1.44948923e-02
            1.2	1.50564885e-02
           1.25	1.56138516e-02
            1.3	1.61671067e-02
           1.35	1.67163405e-02
            1.4	1.72616155e-02
           1.45	1.78030402e-02
            1.5	1.83406843e-02
           1.55	1.88745964e-02
            1.6	1.94048729e-02
           1.65	1.99315712e-02
            1.7	2.04547288e-02
           1.75	2.09744325e-02
            1.8	2.14907301e-02
           1.85	2.20036510e-02
            1.9	2.25132747e-02
           1.95	2.30196410e-02
              2	2.35227734e-02
           2.05	2.40227454e-02
            2.1	2.45195902e-02
           2.15	2.50133384e-02
            2.2	2.55040321e-02
           2.25	2.59917102e-02
            2.3	2.64764090e-02
           2.35	2.69581633e-02
            2.4	2.74370062e-02
           2.45	2.79129698e-02
            2.5	2.83860855e-02
           2.55	2.88563835e-02
            2.6	2.93238933e-02
           2.65	2.97886432e-02
            2.7	3.02506610e-02
           2.75	3.07099733e-02
            2.8	3.11666063e-02
           2.85	3.16205853e-02
            2.9	3.20719351e-02
           2.95	3.25206797e-02
              3	3.29668424e-02
           3.05	3.34104463e-02
            3.1	3.38515135e-02
           3.15	3.42900659e-02
            3.2	3.47261248e-02
           3.25	3.51597108e-02
            3.3	3.55908443e-02
           3.35	3.60195453e-02
            3.4	3.64458331e-02
           3.45	3.68697269e-02
            3.5	3.72912453e-02
           3.55	3.77104066e-02
            3.6	3.81272287e-02
           3.65	3.85417294e-02
            3.7	3.89539258e-02
           3.75	3.93638350e-02
            3.8	3.97714736e-02
           3.85	4.01768579e-02
            3.9	4.05800042e-02
           3.95	4.09809282e-02
              4	4.13796455e-02
           4.05	4.17761714e-02
            4.1	4.21705211e-02
           4.15	4.25627093e-02
            4.2	4.29527508e-02
           4.25	4.33406600e-02
            4.3	4.37264510e-02
           4.35	4.41101379e-02
            4.4	4.44917345e-02
           4.45	4.48712544e-02
            4.5	4.52487112e-02
           4.55	4.56241181e-02
            4.6	4.59974882e-02
           4.65	4.63688344e-02
            4.7	4.67381697e-02
           4.75	4.71055065e-02
            4.8	4.74708574e-02
           4.85	4.78342347e-02
            4.9	4.81956508e-02
           4.95	4.85551175e-02
              5	4.89126469e-02
           5.05	4.92682508e-02
            5.1	4.96219408e-02
           5.15	4.99737286e-02
            5.2	5.03236255e-02
           5.25	5.06716431e-02
            5.3	5.10177923e-02
           5.35	5.13620844e-02
            5.4	5.17045305e-02
           5.45	5.20451413e-02
            5.5	5.23839277e-02
           5.55	5.27209004e-02
            5.6	5.30560700e-02
           5.65	5.33894471e-02
            5.7	5.37210420e-02
           5.75	5.40508652e-02
            5.8	5.43789268e-02
           5.85	5.47052370e-02
            5.9	5.50298060e-02
           5.95	5.53526436e-02
              6	5.56737599e-02
           6.05	5.59931646e-02
            6.1	5.63108675e-02
           6.15	5.66268784e-02
            6.2	5.69412068e-02
           6.25	5.72538623e-02
            6.3	5.75648543e-02
           6.35	5.78741923e-02
            6.4	5.81818855e-02
           6.45	5.84879433e-02
            6.5	5.87923748e-02
           6.55	5.90951892e-02
            6.6	5.93963955e-02
           6.65	5.96960028e-02
            6.7	5.99940199e-02
           6.75	6.02904558e-02
            6.8	6.05853193e-02
           6.85	6.08786191e-02
            6.9	6.11703639e-02
           6.95	6.14605625e-02
              7	6.17492233e-02
           7.05	6.20363548e-02
            7.1	6.23219657e-02
           7.15	6.26060642e-02
            7.2	6.28886588e-02
           7.25	6.31697577e-02
            7.3	6.34493693e-02
           7.35	6.37275017e-02
            7.4	6.40041630e-02
           7.45	6.42793615e-02
            7.5	6.45531051e-02
           7.55	6.48254018e-02
            7.6	6.50962595e-02
           7.65	6.53656863e-02
            7.7	6.56336899e-02
           7.75	6.59002782e-02
            7.8	6.61654589e-02
           7.85	6.64292397e-02
            7.9	6.66916283e-02
           7.95	6.69526323e-02
              8	6.72122593e-02
           8.05	6.74705168e-02
            8.1	6.77274123e-02
           8.15	6.79829532e-02
            8.2	6.82371470e-02
           8.25	6.84900010e-02
            8.3	6.87415226e-02
           8.35	6.89917189e-02
            8.4	6.92405972e-02
           8.45	6.94881647e-02
            8.5	6.97344285e-02
           8.55	6.99793957e-02
            8.6	7.02230734e-02
           8.65	7.04654686e-02
            8.7	7.07065883e-02
           8.75	7.09464393e-02
            8.8	7.11850287e-02
           8.85	7.14223632e-02
            8.9	7.16584497e-02
           8.95	7.18932949e-02
              9	7.21269057e-02
           9.05	7.23592886e-02
            9.1	7.25904504e-02
           9.15	7.28203977e-02
            9.2	7.30491370e-02
           9.25	7.32766750e-02
            9.3	7.35030181e-02
           9.35	7.37281728e-02
            9.4	7.39521456e-02
           9.45	7.41749428e-02
            9.5	7.43965708e-02
           9.55	7.46170360e-02
            9.6	7.48363446e-02
           9.65	7.50545030e-02
            9.7	7.52715172e-02
           9.75	7.54873936e-02
            9.8	7.57021383e-02
           9.85	7.59157573e-02
            9.9	7.61282569e-02
           9.95	7.63396429e-02
             10	7.65499216e-02
          10.05	7.67590989e-02
           10.1	7.69671806e-02
          10.15	7.71741727e-02
           10.2	7.73800811e-02
          10.25	7.75849116e-02
           10.3	7.77886700e-02
          10.35	7.79913622e-02
           10.4	7.81929939e-02
          10.45	7.83935708e-02
           10.5	7.85930986e-02
          10.55	7.87915830e-02
           10.6	7.89890296e-02
          10.65	7.91854439e-02
           10.7	7.93808316e-02
          10.75	7.95751981e-02
           10.8	7.97685491e-02
          10.85	7.99608899e-02
           10.9	8.01522259e-02
          10.95	8.03425627e-02
             11	8.05319056e-02
          11.05	8.07202599e-02
           11.1	8.09076310e-02
          11.15	8.10940241e-02
           11.2	8.12794445e-02
          11.25	8.14638974e-02
           11.3	8.16473881e-02
          11.35	8.18299217e-02
           11.4	8.20115034e-02
          11.45	8.21921383e-02
           11.5	8.23718314e-02
          11.55	8.25505879e-02
           11.6	8.27284127e-02
          11.65	8.29053109e-02
           11.7	8.30812874e-02
          11.75	8.32563473e-02
           11.8	8.34304953e-02
          11.85	8.36037365e-02
           11.9	8.37760756e-02
          11.95	8.39475176e-02
             12	8.41180672e-02
          12.05	8.42877292e-02
           12.1	8.44565084e-02
          12.15	8.46244095e-02
           12.2	8.47914372e-02
          12.25	8.49575962e-02
           12.3	8.51228912e-02
          12.35	8.52873267e-02
           12.4	8.54509075e-02
          12.45	8.56136380e-02
           12.5	8.57755229e-02
          12.55	8.59365666e-02
           12.6	8.60967737e-02
          12.65	8.62561486e-02
           12.7	8.64146957e-02
          12.75	8.65724196e-02
           12.8	8.67293246e-02
          12.85	8.68854152e-02
           12.9	8.70406955e-02
          12.95	8.71951701e-02
             13	8.73488431e-02
          13.05	8.75017189e-02
           13.1	8.76538018e-02
          13.15	8.78050959e-02
           13.2	8.79556055e-02
          13.25	8.81053348e-02
           13.3	8.82542880e-02
          13.35	8.84024691e-02
           13.4	8.85498823e-02
          13.45	8.86965317e-02
           13.5	8.88424214e-02
          13.55	8.89875555e-02
           13.6	8.91319379e-02
          13.65	8.92755727e-02
           13.7	8.94184638e-02
          13.75	8.95606152e-02
           13.8	8.97020309e-02
          13.85	8.98427148e-02
           13.9	8.99826708e-02
          13.95	9.01219027e-02
             14	9.02604145e-02
          14.05	9.03982098e-02
           14.1	9.05352927e-02
          14.15	9.06716668e-02
           14.2	9.08073359e-02
          14.25	9.09423038e-02
           14.3	9.10765742e-02
          14.35	9.12101508e-02
           14.4	9.13430373e-02
          14.45	9.14752374e-02
           14.5	9.16067547e-02
          14.55	9.17375928e-02
           14.6	9.18677554e-02
          14.65	9.19972461e-02
           14.7	9.21260683e-02
          14.75	9.22542257e-02
           14.8	9.23817218e-02
          14.85	9.25085601e-02
           14.9	9.26347441e-02
          14.95	9.27602773e-02
             15	9.28851630e-02
          15.05	9.30094048e-02
           15.1	9.31330061e-02
          15.15	9.32559703e-02
           15.2	9.33783006e-02
          15.25	9.35000006e-02
           15.3	9.36210735e-02
          15.35	9.37415226e-02
           15.4	9.38613513e-02
          15.45	9.39805628e-02
           15.5	9.40991605e-02
          15.55	9.42171475e-02
           15.6	9.43345271e-02
          15.65	9.44513025e-02
           15.7	9.45674769e-02
          15.75	9.46830535e-02
           15.8	9.47980354e-02
          15.85	9.49124258e-02
           15.9	9.50262278e-02
          15.95	9.51394446e-02
             16	9.52520791e-02
          16.05	9.53641345e-02
           16.1	9.54756139e-02
          16.15	9.55865203e-02
           16.2	9.56968566e-02
          16.25	9.58066260e-02
           16.3	9.59158314e-02
          16.35	9.60244758e-02
           16.4	9.61325621e-02
          16.45	9.62400934e-02
           16.5	9.63470724e-02
          16.55	9.64535022e-02
           16.6	9.65593855e-02
          16.65	9.66647254e-02
           16.7	9.67695247e-02
          16.75	9.68737861e-02
           16.8	9.69775126e-02
          16.85	9.70807070e-02
           16.9	9.71833720e-02
          16.95	9.72855105e-02
             17	9.73871252e-02
          17.05	9.74882189e-02
           17.1	9.75887943e-02
          17.15	9.76888541e-02
           17.2	9.77884011e-02
          17.25	9.78874379e-02
           17.3	9.79859672e-02
          17.35	9.80839918e-02
           17.4	9.81815142e-02
          17.45	9.82785370e-02
           17.5	9.83750630e-02
          17.55	9.84710947e-02
           17.6	9.85666347e-02
          17.65	9.86616856e-02
           17.7	9.87562500e-02
          17.75	9.88503304e-02
           17.8	9.89439293e-02
          17.85	9.90370493e-02
           17.9	9.91296929e-02
          17.95	9.92218625e-02
             18	9.93135608e-02
          18.05	9.94047900e-02
           18.1	9.94955528e-02
          18.15	9.95858515e-02
           18.2	9.96756886e-02
          18.25	9.97650664e-02
           18.3	9.98539875e-02
          18.35	9.99424541e-02
           18.4	1.00030469e-01
          18.45	1.00118034e-01
           18.5	1.00205151e-01
          18.55	1.00291824e-01
           18.6	1.00378054e-01
          18.65	1.00463843e-01
           18.7	1.00549195e-01
          18.75	1.00634111e-01
           18.8	1.00718593e-01
          18.85	1.00802644e-01
           18.9	1.00886266e-01
          18.95	1.00969462e-01
             19	1.01052232e-01
          19.05	1.01134581e-01
           19.1	1.01216510e-01
          19.15	1.01298020e-01
           19.2	1.01379115e-01
          19.25	1.01459797e-01
           19.3	1.01540067e-01
          19.35	1.01619928e-01
           19.4	1.01699381e-01
          19.45	1.01778430e-01
           19.5	1.01857076e-01
          19.55	1.01935321e-01
           19.6	1.02013168e-01
          19.65	1.02090617e-01
           19.7	1.02167673e-01
          19.75	1.02244336e-01
           19.8	1.02320608e-01
          19.85	1.02396492e-01
           19.9	1.02471989e-01
          19.95	1.02547103e-01
             20	1.02621833e-01
